 written on 19Sep2022 at 18:20:34 
          40
           9
    2    1    1    1    1    1    1    1    2
    0    0   -4    1    1    0.002651    0.000000
    0    0   -4    2    1    0.003511    0.000025
    0    0   -4    3    1    0.003032   -0.000000
    0    0   -4    4    1   -0.001024    0.000011
    0    0   -4    5    1   -0.000224    0.000000
    0    0   -4    6    1    0.001360   -0.000024
    0    0   -4    7    1    0.003044    0.000002
    0    0   -4    8    1    0.000173   -0.000012
    0    0   -4    9    1    0.002811    0.000003
    0    0   -4   10    1   -0.001462    0.000101
    0    0   -4   11    1   -0.000492    0.000003
    0    0   -4   12    1    0.002874   -0.000008
    0    0   -4   13    1    0.002345   -0.000002
    0    0   -4   14    1   -0.000611   -0.000100
    0    0   -4   15    1   -0.000316   -0.000003
    0    0   -4   16    1   -0.001307    0.000009
    0    0   -4   17    1    0.009210   -0.000030
    0    0   -4   18    1    0.004304    0.000026
    0    0   -4   19    1    0.008068    0.000016
    0    0   -4   20    1    0.002383    0.000016
    0    0   -4   21    1    0.002724   -0.000024
    0    0   -4   22    1    0.005510    0.000028
    0    0   -4   23    1    0.005685   -0.000007
    0    0   -4   24    1    0.003730   -0.000019
    0    0   -4   25    1    0.004609   -0.000016
    0    0   -4   26    1   -0.002287   -0.000010
    0    0   -4   27    1    0.000261    0.000026
    0    0   -4   28    1    0.002466    0.000015
    0    0   -4   29    1   -0.000019   -0.000042
    0    0   -4   30    1   -0.001909    0.000021
    0    0   -4   31    1   -0.004589   -0.000047
    0    0   -4   32    1   -0.001734    0.000031
    0    0   -4   33    1    0.001043   -0.000026
    0    0   -4   34    1   -0.001164    0.000044
    0    0   -4   35    1   -0.002618    0.000043
    0    0   -4   36    1   -0.005256   -0.000031
    0    0   -4   37    1   -0.002344   -0.000010
    0    0   -4   38    1   -0.004209   -0.000048
    0    0   -4   39    1    0.007455    0.000005
    0    0   -4   40    1   -0.003325    0.000046
    0    0   -4    1    2    0.003511   -0.000025
    0    0   -4    2    2    0.005227    0.000000
    0    0   -4    3    2    0.003569    0.000016
    0    0   -4    4    2    0.001331    0.000007
    0    0   -4    5    2    0.001798    0.000024
    0    0   -4    6    2    0.001513   -0.000000
    0    0   -4    7    2    0.001740   -0.000017
    0    0   -4    8    2    0.001308   -0.000007
    0    0   -4    9    2    0.004041   -0.000006
    0    0   -4   10    2    0.002821    0.000003
    0    0   -4   11    2    0.001862   -0.000046
    0    0   -4   12    2    0.002384    0.000003
    0    0   -4   13    2    0.004045    0.000005
    0    0   -4   14    2    0.002371   -0.000004
    0    0   -4   15    2    0.002016    0.000047
    0    0   -4   16    2    0.002809   -0.000003
    0    0   -4   17    2    0.007214    0.000030
    0    0   -4   18    2    0.002721   -0.000004
    0    0   -4   19    2    0.007126   -0.000027
    0    0   -4   20    2    0.002740    0.000010
    0    0   -4   21    2    0.002839    0.000000
    0    0   -4   22    2    0.003345   -0.000033
    0    0   -4   23    2    0.003430    0.000029
    0    0   -4   24    2    0.002829   -0.000006
    0    0   -4   25    2    0.016690   -0.000000
    0    0   -4   26    2    0.015144    0.000021
    0    0   -4   27    2    0.007188   -0.000003
    0    0   -4   28    2    0.015047   -0.000023
    0    0   -4   29    2   -0.000643    0.000029
    0    0   -4   30    2   -0.000726   -0.000024
    0    0   -4   31    2   -0.001102    0.000017
    0    0   -4   32    2   -0.000202    0.000015
    0    0   -4   33    2    0.001622    0.000024
    0    0   -4   34    2    0.001540   -0.000030
    0    0   -4   35    2   -0.000247   -0.000013
    0    0   -4   36    2   -0.001154   -0.000018
    0    0   -4   37    2   -0.003767   -0.000037
    0    0   -4   38    2   -0.003646    0.000045
    0    0   -4   39    2   -0.004341    0.000040
    0    0   -4   40    2   -0.004471   -0.000045
    0    0   -4    1    3    0.003032    0.000000
    0    0   -4    2    3    0.003569   -0.000016
    0    0   -4    3    3    0.002650    0.000000
    0    0   -4    4    3    0.000201    0.000004
    0    0   -4    5    3    0.003044   -0.000001
    0    0   -4    6    3    0.001302    0.000016
    0    0   -4    7    3   -0.000224    0.000000
    0    0   -4    8    3   -0.001053   -0.000003
    0    0   -4    9    3    0.002820   -0.000002
    0    0   -4   10    3   -0.001009   -0.000009
    0    0   -4   11    3   -0.000309    0.000002
    0    0   -4   12    3   -0.000625    0.000090
    0    0   -4   13    3    0.002338    0.000002
    0    0   -4   14    3    0.002578    0.000007
    0    0   -4   15    3   -0.000499   -0.000003
    0    0   -4   16    3   -0.001446   -0.000091
    0    0   -4   17    3    0.007985   -0.000018
    0    0   -4   18    3    0.002465   -0.000020
    0    0   -4   19    3    0.009258    0.000025
    0    0   -4   20    3    0.004363   -0.000023
    0    0   -4   21    3    0.003654    0.000021
    0    0   -4   22    3    0.005776    0.000010
    0    0   -4   23    3    0.005467   -0.000025
    0    0   -4   24    3    0.002673    0.000018
    0    0   -4   25    3    0.004555    0.000013
    0    0   -4   26    3    0.002427   -0.000008
    0    0   -4   27    3    0.000315   -0.000020
    0    0   -4   28    3   -0.002257    0.000004
    0    0   -4   29    3   -0.002030   -0.000021
    0    0   -4   30    3    0.000057    0.000037
    0    0   -4   31    3   -0.005386    0.000029
    0    0   -4   32    3   -0.002529   -0.000039
    0    0   -4   33    3   -0.001245   -0.000039
    0    0   -4   34    3    0.001168    0.000025
    0    0   -4   35    3   -0.001601   -0.000032
    0    0   -4   36    3   -0.004683    0.000041
    0    0   -4   37    3   -0.004227    0.000044
    0    0   -4   38    3   -0.002482    0.000007
    0    0   -4   39    3   -0.003307   -0.000042
    0    0   -4   40    3    0.007583   -0.000007
    0    0   -4    1    4   -0.001024   -0.000011
    0    0   -4    2    4    0.001331   -0.000007
    0    0   -4    3    4    0.000201   -0.000004
    0    0   -4    4    4    0.003608    0.000000
    0    0   -4    5    4    0.000156    0.000011
    0    0   -4    6    4    0.001484    0.000006
    0    0   -4    7    4   -0.000927    0.000003
    0    0   -4    8    4    0.002157    0.000000
    0    0   -4    9    4    0.001844    0.000063
    0    0   -4   10    4   -0.000310   -0.000002
    0    0   -4   11    4    0.002551    0.000006
    0    0   -4   12    4   -0.000311    0.000003
    0    0   -4   13    4    0.002229   -0.000064
    0    0   -4   14    4   -0.000565    0.000003
    0    0   -4   15    4    0.004317   -0.000006
    0    0   -4   16    4   -0.000491   -0.000002
    0    0   -4   17    4    0.005702   -0.000011
    0    0   -4   18    4    0.006439    0.000029
    0    0   -4   19    4    0.006392   -0.000011
    0    0   -4   20    4    0.008841    0.000016
    0    0   -4   21    4    0.008085   -0.000019
    0    0   -4   22    4    0.005576    0.000004
    0    0   -4   23    4    0.005451    0.000017
    0    0   -4   24    4    0.005749   -0.000030
    0    0   -4   25    4   -0.017665   -0.000036
    0    0   -4   26    4   -0.012308    0.000002
    0    0   -4   27    4   -0.012997    0.000036
    0    0   -4   28    4   -0.013525    0.000012
    0    0   -4   29    4    0.002399   -0.000025
    0    0   -4   30    4    0.003092   -0.000031
    0    0   -4   31    4    0.001901   -0.000029
    0    0   -4   32    4    0.000677    0.000023
    0    0   -4   33    4    0.000848    0.000023
    0    0   -4   34    4    0.002078    0.000027
    0    0   -4   35    4    0.004673    0.000017
    0    0   -4   36    4    0.005873   -0.000015
    0    0   -4   37    4    0.011391   -0.000049
    0    0   -4   38    4    0.014064   -0.000048
    0    0   -4   39    4    0.013067    0.000037
    0    0   -4   40    4    0.009322    0.000047
    0    0   -4    1    5   -0.000224   -0.000000
    0    0   -4    2    5    0.001798   -0.000024
    0    0   -4    3    5    0.003044    0.000001
    0    0   -4    4    5    0.000156   -0.000011
    0    0   -4    5    5    0.002965    0.000000
    0    0   -4    6    5    0.002293    0.000024
    0    0   -4    7    5    0.003528   -0.000001
    0    0   -4    8    5   -0.000895    0.000011
    0    0   -4    9    5    0.002382   -0.000003
    0    0   -4   10    5   -0.000607   -0.000100
    0    0   -4   11    5   -0.000309   -0.000004
    0    0   -4   12    5   -0.000771    0.000009
    0    0   -4   13    5    0.001953    0.000001
    0    0   -4   14    5   -0.000953    0.000100
    0    0   -4   15    5   -0.000554    0.000003
    0    0   -4   16    5    0.002874   -0.000010
    0    0   -4   17    5    0.005580    0.000027
    0    0   -4   18    5    0.001682   -0.000026
    0    0   -4   19    5    0.005789   -0.000008
    0    0   -4   20    5    0.002686   -0.000020
    0    0   -4   21    5    0.004625    0.000022
    0    0   -4   22    5    0.008071   -0.000031
    0    0   -4   23    5    0.007109    0.000013
    0    0   -4   24    5    0.002760    0.000017
    0    0   -4   25    5    0.000839    0.000022
    0    0   -4   26    5    0.007285    0.000017
    0    0   -4   27    5    0.006450   -0.000019
    0    0   -4   28    5    0.002459   -0.000011
    0    0   -4   29    5   -0.001427    0.000044
    0    0   -4   30    5    0.000600   -0.000028
    0    0   -4   31    5   -0.003828    0.000043
    0    0   -4   32    5   -0.006010   -0.000033
    0    0   -4   33    5   -0.003359    0.000022
    0    0   -4   34    5   -0.001287   -0.000044
    0    0   -4   35    5   -0.005177   -0.000044
    0    0   -4   36    5   -0.002981    0.000032
    0    0   -4   37    5    0.004815    0.000006
    0    0   -4   38    5   -0.006165    0.000045
    0    0   -4   39    5   -0.002563   -0.000011
    0    0   -4   40    5   -0.005388   -0.000048
    0    0   -4    1    6    0.001360    0.000024
    0    0   -4    2    6    0.001513    0.000000
    0    0   -4    3    6    0.001302   -0.000016
    0    0   -4    4    6    0.001484   -0.000006
    0    0   -4    5    6    0.002293   -0.000024
    0    0   -4    6    6    0.003343    0.000000
    0    0   -4    7    6    0.002349    0.000016
    0    0   -4    8    6    0.001501    0.000006
    0    0   -4    9    6    0.004047    0.000005
    0    0   -4   10    6    0.002338   -0.000002
    0    0   -4   11    6    0.002208    0.000046
    0    0   -4   12    6    0.001955   -0.000002
    0    0   -4   13    6    0.002462   -0.000005
    0    0   -4   14    6    0.001960    0.000001
    0    0   -4   15    6    0.002056   -0.000046
    0    0   -4   16    6    0.002343    0.000002
    0    0   -4   17    6    0.003367   -0.000034
    0    0   -4   18    6    0.004282    0.000005
    0    0   -4   19    6    0.003459    0.000032
    0    0   -4   20    6    0.004253   -0.000010
    0    0   -4   21    6    0.004165   -0.000005
    0    0   -4   22    6    0.006379    0.000031
    0    0   -4   23    6    0.006288   -0.000028
    0    0   -4   24    6    0.004194    0.000009
    0    0   -4   25    6    0.005833   -0.000004
    0    0   -4   26    6    0.004202   -0.000019
    0    0   -4   27    6    0.011254    0.000004
    0    0   -4   28    6    0.004265    0.000019
    0    0   -4   29    6    0.001968   -0.000027
    0    0   -4   30    6    0.002045    0.000023
    0    0   -4   31    6    0.002094   -0.000017
    0    0   -4   32    6    0.000637   -0.000020
    0    0   -4   33    6   -0.001615   -0.000022
    0    0   -4   34    6   -0.001533    0.000028
    0    0   -4   35    6    0.000700    0.000017
    0    0   -4   36    6    0.002157    0.000019
    0    0   -4   37    6   -0.004285    0.000043
    0    0   -4   38    6   -0.004425   -0.000045
    0    0   -4   39    6    0.000290   -0.000041
    0    0   -4   40    6    0.000429    0.000045
    0    0   -4    1    7    0.003044   -0.000002
    0    0   -4    2    7    0.001740    0.000017
    0    0   -4    3    7   -0.000224   -0.000000
    0    0   -4    4    7   -0.000927   -0.000003
    0    0   -4    5    7    0.003528    0.000001
    0    0   -4    6    7    0.002349   -0.000016
    0    0   -4    7    7    0.002962    0.000000
    0    0   -4    8    7    0.000189    0.000004
    0    0   -4    9    7    0.002372    0.000003
    0    0   -4   10    7    0.002580    0.000009
    0    0   -4   11    7   -0.000566   -0.000003
    0    0   -4   12    7   -0.000935   -0.000089
    0    0   -4   13    7    0.001959   -0.000002
    0    0   -4   14    7   -0.000479   -0.000008
    0    0   -4   15    7   -0.000299    0.000004
    0    0   -4   16    7   -0.000628    0.000090
    0    0   -4   17    7    0.005868    0.000012
    0    0   -4   18    7    0.002611    0.000023
    0    0   -4   19    7    0.005535   -0.000022
    0    0   -4   20    7    0.001620    0.000020
    0    0   -4   21    7    0.002829   -0.000019
    0    0   -4   22    7    0.007025   -0.000015
    0    0   -4   23    7    0.008109    0.000026
    0    0   -4   24    7    0.004684   -0.000018
    0    0   -4   25    7    0.000893   -0.000019
    0    0   -4   26    7    0.002505    0.000006
    0    0   -4   27    7    0.006395    0.000014
    0    0   -4   28    7    0.007246   -0.000010
    0    0   -4   29    7    0.000732    0.000026
    0    0   -4   30    7   -0.001511   -0.000039
    0    0   -4   31    7   -0.002854   -0.000031
    0    0   -4   32    7   -0.005274    0.000040
    0    0   -4   33    7   -0.001205    0.000040
    0    0   -4   34    7   -0.003484   -0.000022
    0    0   -4   35    7   -0.006130    0.000033
    0    0   -4   36    7   -0.003728   -0.000038
    0    0   -4   37    7   -0.006156   -0.000039
    0    0   -4   38    7    0.004949   -0.000005
    0    0   -4   39    7   -0.005404    0.000043
    0    0   -4   40    7   -0.002702    0.000007
    0    0   -4    1    8    0.000173    0.000012
    0    0   -4    2    8    0.001308    0.000007
    0    0   -4    3    8   -0.001053    0.000003
    0    0   -4    4    8    0.002157   -0.000000
    0    0   -4    5    8   -0.000895   -0.000011
    0    0   -4    6    8    0.001501   -0.000006
    0    0   -4    7    8    0.000189   -0.000004
    0    0   -4    8    8    0.003612    0.000000
    0    0   -4    9    8    0.002030   -0.000063
    0    0   -4   10    8   -0.000499    0.000002
    0    0   -4   11    8    0.004320   -0.000005
    0    0   -4   12    8   -0.000557   -0.000003
    0    0   -4   13    8    0.002038    0.000064
    0    0   -4   14    8   -0.000299   -0.000003
    0    0   -4   15    8    0.002552    0.000005
    0    0   -4   16    8   -0.000314    0.000002
    0    0   -4   17    8    0.006361    0.000006
    0    0   -4   18    8    0.008910   -0.000019
    0    0   -4   19    8    0.005666    0.000017
    0    0   -4   20    8    0.006516   -0.000026
    0    0   -4   21    8    0.005680    0.000032
    0    0   -4   22    8    0.005475   -0.000012
    0    0   -4   23    8    0.005611   -0.000009
    0    0   -4   24    8    0.008005    0.000015
    0    0   -4   25    8   -0.017756    0.000036
    0    0   -4   26    8   -0.013500   -0.000007
    0    0   -4   27    8   -0.012897   -0.000033
    0    0   -4   28    8   -0.012248   -0.000004
    0    0   -4   29    8    0.003008    0.000029
    0    0   -4   30    8    0.002318    0.000027
    0    0   -4   31    8    0.005803    0.000021
    0    0   -4   32    8    0.004740   -0.000012
    0    0   -4   33    8    0.002141   -0.000029
    0    0   -4   34    8    0.000924   -0.000021
    0    0   -4   35    8    0.000738   -0.000028
    0    0   -4   36    8    0.001823    0.000024
    0    0   -4   37    8    0.013908    0.000043
    0    0   -4   38    8    0.011238    0.000053
    0    0   -4   39    8    0.009463   -0.000043
    0    0   -4   40    8    0.013194   -0.000046
    0    0   -4    1    9    0.002811   -0.000003
    0    0   -4    2    9    0.004041    0.000006
    0    0   -4    3    9    0.002820    0.000002
    0    0   -4    4    9    0.001844   -0.000063
    0    0   -4    5    9    0.002382    0.000003
    0    0   -4    6    9    0.004047   -0.000005
    0    0   -4    7    9    0.002372   -0.000003
    0    0   -4    8    9    0.002030    0.000063
    0    0   -4    9    9    0.005231    0.000000
    0    0   -4   10    9    0.003556    0.000012
    0    0   -4   11    9    0.001328    0.000007
    0    0   -4   12    9    0.001788    0.000004
    0    0   -4   13    9    0.001513    0.000000
    0    0   -4   14    9    0.001753   -0.000012
    0    0   -4   15    9    0.001309   -0.000007
    0    0   -4   16    9    0.003522   -0.000004
    0    0   -4   17    9   -0.000723   -0.000025
    0    0   -4   18    9   -0.001167   -0.000025
    0    0   -4   19    9   -0.000646    0.000021
    0    0   -4   20    9   -0.001098    0.000027
    0    0   -4   21    9   -0.000196    0.000021
    0    0   -4   22    9    0.001620    0.000026
    0    0   -4   23    9    0.001546   -0.000020
    0    0   -4   24    9   -0.000258   -0.000023
    0    0   -4   25    9    0.016692   -0.000007
    0    0   -4   26    9    0.015155    0.000036
    0    0   -4   27    9    0.007188    0.000004
    0    0   -4   28    9    0.015034   -0.000040
    0    0   -4   29    9    0.007139   -0.000023
    0    0   -4   30    9    0.007210    0.000022
    0    0   -4   31    9    0.002746    0.000009
    0    0   -4   32    9    0.002845    0.000009
    0    0   -4   33    9    0.003354   -0.000023
    0    0   -4   34    9    0.003426    0.000026
    0    0   -4   35    9    0.002823   -0.000005
    0    0   -4   36    9    0.002718   -0.000013
    0    0   -4   37    9   -0.004582    0.000007
    0    0   -4   38    9   -0.004605   -0.000008
    0    0   -4   39    9   -0.009519   -0.000000
    0    0   -4   40    9   -0.009501    0.000005
    0    0   -4    1   10   -0.001462   -0.000101
    0    0   -4    2   10    0.002821   -0.000003
    0    0   -4    3   10   -0.001009    0.000009
    0    0   -4    4   10   -0.000310    0.000002
    0    0   -4    5   10   -0.000607    0.000100
    0    0   -4    6   10    0.002338    0.000002
    0    0   -4    7   10    0.002580   -0.000009
    0    0   -4    8   10   -0.000499   -0.000002
    0    0   -4    9   10    0.003556   -0.000012
    0    0   -4   10   10    0.002650    0.000000
    0    0   -4   11   10    0.000214    0.000025
    0    0   -4   12   10    0.003045   -0.000001
    0    0   -4   13   10    0.001316    0.000011
    0    0   -4   14   10   -0.000224    0.000000
    0    0   -4   15   10   -0.001068   -0.000024
    0    0   -4   16   10    0.003033    0.000000
    0    0   -4   17   10    0.000067    0.000042
    0    0   -4   18   10   -0.004675    0.000047
    0    0   -4   19   10   -0.002029   -0.000028
    0    0   -4   20   10   -0.005386    0.000024
    0    0   -4   21   10   -0.002537   -0.000043
    0    0   -4   22   10   -0.001251   -0.000045
    0    0   -4   23   10    0.001172    0.000033
    0    0   -4   24   10   -0.001601   -0.000024
    0    0   -4   25   10    0.004565    0.000007
    0    0   -4   26   10    0.002420   -0.000022
    0    0   -4   27   10    0.000313   -0.000015
    0    0   -4   28   10   -0.002244    0.000021
    0    0   -4   29   10    0.009268    0.000025
    0    0   -4   30   10    0.007990   -0.000023
    0    0   -4   31   10    0.004355   -0.000031
    0    0   -4   32   10    0.003649    0.000012
    0    0   -4   33   10    0.005770    0.000014
    0    0   -4   34   10    0.005459   -0.000025
    0    0   -4   35   10    0.002678    0.000029
    0    0   -4   36   10    0.002468   -0.000008
    0    0   -4   37   10    0.007642   -0.000026
    0    0   -4   38   10    0.001492   -0.000003
    0    0   -4   39   10    0.008641    0.000027
    0    0   -4   40   10   -0.004894    0.000005
    0    0   -4    1   11   -0.000492   -0.000003
    0    0   -4    2   11    0.001862    0.000046
    0    0   -4    3   11   -0.000309   -0.000002
    0    0   -4    4   11    0.002551   -0.000006
    0    0   -4    5   11   -0.000309    0.000004
    0    0   -4    6   11    0.002208   -0.000046
    0    0   -4    7   11   -0.000566    0.000003
    0    0   -4    8   11    0.004320    0.000005
    0    0   -4    9   11    0.001328   -0.000007
    0    0   -4   10   11    0.000214   -0.000025
    0    0   -4   11   11    0.003612    0.000000
    0    0   -4   12   11    0.000142    0.000017
    0    0   -4   13   11    0.001483    0.000006
    0    0   -4   14   11   -0.000940    0.000024
    0    0   -4   15   11    0.002157   -0.000001
    0    0   -4   16   11   -0.001009   -0.000016
    0    0   -4   17   11    0.003082   -0.000020
    0    0   -4   18   11    0.005881   -0.000025
    0    0   -4   19   11    0.002388   -0.000018
    0    0   -4   20   11    0.001908   -0.000028
    0    0   -4   21   11    0.000678    0.000030
    0    0   -4   22   11    0.000854    0.000013
    0    0   -4   23   11    0.002085    0.000021
    0    0   -4   24   11    0.004672    0.000015
    0    0   -4   25   11   -0.017680   -0.000022
    0    0   -4   26   11   -0.012307    0.000009
    0    0   -4   27   11   -0.012986    0.000023
    0    0   -4   28   11   -0.013525    0.000003
    0    0   -4   29   11    0.006386   -0.000002
    0    0   -4   30   11    0.005694   -0.000012
    0    0   -4   31   11    0.008834    0.000025
    0    0   -4   32   11    0.008095   -0.000024
    0    0   -4   33   11    0.005576    0.000005
    0    0   -4   34   11    0.005453    0.000007
    0    0   -4   35   11    0.005759   -0.000040
    0    0   -4   36   11    0.006432    0.000033
    0    0   -4   37   11    0.006949    0.000007
    0    0   -4   38   11    0.013038    0.000012
    0    0   -4   39   11    0.011272   -0.000015
    0    0   -4   40   11    0.004633   -0.000016
    0    0   -4    1   12    0.002874    0.000008
    0    0   -4    2   12    0.002384   -0.000003
    0    0   -4    3   12   -0.000625   -0.000090
    0    0   -4    4   12   -0.000311   -0.000003
    0    0   -4    5   12   -0.000771   -0.000009
    0    0   -4    6   12    0.001955    0.000002
    0    0   -4    7   12   -0.000935    0.000089
    0    0   -4    8   12   -0.000557    0.000003
    0    0   -4    9   12    0.001788   -0.000004
    0    0   -4   10   12    0.003045    0.000001
    0    0   -4   11   12    0.000142   -0.000017
    0    0   -4   12   12    0.002964    0.000000
    0    0   -4   13   12    0.002309    0.000003
    0    0   -4   14   12    0.003527   -0.000001
    0    0   -4   15   12   -0.000884    0.000017
    0    0   -4   16   12   -0.000223   -0.000000
    0    0   -4   17   12    0.000602   -0.000034
    0    0   -4   18   12   -0.002983    0.000024
    0    0   -4   19   12   -0.001417    0.000040
    0    0   -4   20   12   -0.003825    0.000038
    0    0   -4   21   12   -0.006014   -0.000025
    0    0   -4   22   12   -0.003356    0.000029
    0    0   -4   23   12   -0.001290   -0.000040
    0    0   -4   24   12   -0.005188   -0.000039
    0    0   -4   25   12    0.000849    0.000008
    0    0   -4   26   12    0.007289    0.000022
    0    0   -4   27   12    0.006441   -0.000006
    0    0   -4   28   12    0.002449   -0.000016
    0    0   -4   29   12    0.005798   -0.000020
    0    0   -4   30   12    0.005592    0.000019
    0    0   -4   31   12    0.002687   -0.000016
    0    0   -4   32   12    0.004631    0.000023
    0    0   -4   33   12    0.008065   -0.000022
    0    0   -4   34   12    0.007108    0.000023
    0    0   -4   35   12    0.002750    0.000012
    0    0   -4   36   12    0.001672   -0.000024
    0    0   -4   37   12   -0.007464   -0.000005
    0    0   -4   38   12    0.004688   -0.000039
    0    0   -4   39   12   -0.002590    0.000001
    0    0   -4   40   12    0.004247    0.000030
    0    0   -4    1   13    0.002345    0.000002
    0    0   -4    2   13    0.004045   -0.000005
    0    0   -4    3   13    0.002338   -0.000002
    0    0   -4    4   13    0.002229    0.000064
    0    0   -4    5   13    0.001953   -0.000001
    0    0   -4    6   13    0.002462    0.000005
    0    0   -4    7   13    0.001959    0.000002
    0    0   -4    8   13    0.002038   -0.000064
    0    0   -4    9   13    0.001513   -0.000000
    0    0   -4   10   13    0.001316   -0.000011
    0    0   -4   11   13    0.001483   -0.000006
    0    0   -4   12   13    0.002309   -0.000003
    0    0   -4   13   13    0.003341    0.000000
    0    0   -4   14   13    0.002336    0.000011
    0    0   -4   15   13    0.001504    0.000007
    0    0   -4   16   13    0.001344    0.000003
    0    0   -4   17   13    0.002039    0.000024
    0    0   -4   18   13    0.002166    0.000025
    0    0   -4   19   13    0.001969   -0.000019
    0    0   -4   20   13    0.002087   -0.000026
    0    0   -4   21   13    0.000631   -0.000026
    0    0   -4   22   13   -0.001612   -0.000025
    0    0   -4   23   13   -0.001537    0.000019
    0    0   -4   24   13    0.000711    0.000028
    0    0   -4   25   13    0.005832    0.000003
    0    0   -4   26   13    0.004190   -0.000034
    0    0   -4   27   13    0.011253   -0.000003
    0    0   -4   28   13    0.004277    0.000034
    0    0   -4   29   13    0.003450    0.000027
    0    0   -4   30   13    0.003373   -0.000024
    0    0   -4   31   13    0.004250   -0.000009
    0    0   -4   32   13    0.004163   -0.000014
    0    0   -4   33   13    0.006367    0.000021
    0    0   -4   34   13    0.006293   -0.000025
    0    0   -4   35   13    0.004200    0.000010
    0    0   -4   36   13    0.004288    0.000014
    0    0   -4   37   13   -0.006519    0.000001
    0    0   -4   38   13   -0.006515    0.000007
    0    0   -4   39   13   -0.000099   -0.000000
    0    0   -4   40   13   -0.000104   -0.000008
    0    0   -4    1   14   -0.000611    0.000100
    0    0   -4    2   14    0.002371    0.000004
    0    0   -4    3   14    0.002578   -0.000007
    0    0   -4    4   14   -0.000565   -0.000003
    0    0   -4    5   14   -0.000953   -0.000100
    0    0   -4    6   14    0.001960   -0.000001
    0    0   -4    7   14   -0.000479    0.000008
    0    0   -4    8   14   -0.000299    0.000003
    0    0   -4    9   14    0.001753    0.000012
    0    0   -4   10   14   -0.000224   -0.000000
    0    0   -4   11   14   -0.000940   -0.000024
    0    0   -4   12   14    0.003527    0.000001
    0    0   -4   13   14    0.002336   -0.000011
    0    0   -4   14   14    0.002962    0.000000
    0    0   -4   15   14    0.000202    0.000024
    0    0   -4   16   14    0.003044   -0.000002
    0    0   -4   17   14   -0.001521   -0.000044
    0    0   -4   18   14   -0.003736   -0.000043
    0    0   -4   19   14    0.000731    0.000036
    0    0   -4   20   14   -0.002857   -0.000025
    0    0   -4   21   14   -0.005266    0.000043
    0    0   -4   22   14   -0.001199    0.000046
    0    0   -4   23   14   -0.003486   -0.000030
    0    0   -4   24   14   -0.006130    0.000025
    0    0   -4   25   14    0.000879   -0.000015
    0    0   -4   26   14    0.002504    0.000018
    0    0   -4   27   14    0.006402    0.000009
    0    0   -4   28   14    0.007234   -0.000028
    0    0   -4   29   14    0.005530   -0.000021
    0    0   -4   30   14    0.005864    0.000017
    0    0   -4   31   14    0.001631    0.000029
    0    0   -4   32   14    0.002836   -0.000010
    0    0   -4   33   14    0.007028   -0.000020
    0    0   -4   34   14    0.008116    0.000027
    0    0   -4   35   14    0.004676   -0.000028
    0    0   -4   36   14    0.002609    0.000011
    0    0   -4   37   14    0.004681    0.000031
    0    0   -4   38   14   -0.007559    0.000008
    0    0   -4   39   14    0.004261   -0.000019
    0    0   -4   40   14   -0.002500   -0.000001
    0    0   -4    1   15   -0.000316    0.000003
    0    0   -4    2   15    0.002016   -0.000047
    0    0   -4    3   15   -0.000499    0.000003
    0    0   -4    4   15    0.004317    0.000006
    0    0   -4    5   15   -0.000554   -0.000003
    0    0   -4    6   15    0.002056    0.000046
    0    0   -4    7   15   -0.000299   -0.000004
    0    0   -4    8   15    0.002552   -0.000005
    0    0   -4    9   15    0.001309    0.000007
    0    0   -4   10   15   -0.001068    0.000024
    0    0   -4   11   15    0.002157    0.000001
    0    0   -4   12   15   -0.000884   -0.000017
    0    0   -4   13   15    0.001504   -0.000007
    0    0   -4   14   15    0.000202   -0.000024
    0    0   -4   15   15    0.003608    0.000000
    0    0   -4   16   15    0.000161    0.000018
    0    0   -4   17   15    0.002330    0.000015
    0    0   -4   18   15    0.001820    0.000033
    0    0   -4   19   15    0.003020    0.000022
    0    0   -4   20   15    0.005799    0.000021
    0    0   -4   21   15    0.004744   -0.000020
    0    0   -4   22   15    0.002136   -0.000020
    0    0   -4   23   15    0.000920   -0.000016
    0    0   -4   24   15    0.000740   -0.000026
    0    0   -4   25   15   -0.017741    0.000021
    0    0   -4   26   15   -0.013502   -0.000013
    0    0   -4   27   15   -0.012909   -0.000020
    0    0   -4   28   15   -0.012248    0.000005
    0    0   -4   29   15    0.005672    0.000007
    0    0   -4   30   15    0.006365    0.000005
    0    0   -4   31   15    0.006517   -0.000034
    0    0   -4   32   15    0.005670    0.000037
    0    0   -4   33   15    0.005472   -0.000013
    0    0   -4   34   15    0.005607   -0.000001
    0    0   -4   35   15    0.007992    0.000027
    0    0   -4   36   15    0.008911   -0.000023
    0    0   -4   37   15    0.013048   -0.000008
    0    0   -4   38   15    0.006962   -0.000010
    0    0   -4   39   15    0.004592    0.000011
    0    0   -4   40   15    0.011222    0.000015
    0    0   -4    1   16   -0.001307   -0.000009
    0    0   -4    2   16    0.002809    0.000003
    0    0   -4    3   16   -0.001446    0.000091
    0    0   -4    4   16   -0.000491    0.000002
    0    0   -4    5   16    0.002874    0.000010
    0    0   -4    6   16    0.002343   -0.000002
    0    0   -4    7   16   -0.000628   -0.000090
    0    0   -4    8   16   -0.000314   -0.000002
    0    0   -4    9   16    0.003522    0.000004
    0    0   -4   10   16    0.003033   -0.000000
    0    0   -4   11   16   -0.001009    0.000016
    0    0   -4   12   16   -0.000223    0.000000
    0    0   -4   13   16    0.001344   -0.000003
    0    0   -4   14   16    0.003044    0.000002
    0    0   -4   15   16    0.000161   -0.000018
    0    0   -4   16   16    0.002652    0.000000
    0    0   -4   17   16   -0.001910    0.000028
    0    0   -4   18   16   -0.005255   -0.000022
    0    0   -4   19   16   -0.000029   -0.000037
    0    0   -4   20   16   -0.004595   -0.000042
    0    0   -4   21   16   -0.001729    0.000023
    0    0   -4   22   16    0.001040   -0.000032
    0    0   -4   23   16   -0.001157    0.000040
    0    0   -4   24   16   -0.002607    0.000037
    0    0   -4   25   16    0.004598   -0.000002
    0    0   -4   26   16   -0.002292   -0.000018
    0    0   -4   27   16    0.000272    0.000013
    0    0   -4   28   16    0.002475    0.000019
    0    0   -4   29   16    0.008061    0.000026
    0    0   -4   30   16    0.009200   -0.000020
    0    0   -4   31   16    0.002382    0.000011
    0    0   -4   32   16    0.002719   -0.000023
    0    0   -4   33   16    0.005513    0.000021
    0    0   -4   34   16    0.005687   -0.000018
    0    0   -4   35   16    0.003736   -0.000014
    0    0   -4   36   16    0.004317    0.000027
    0    0   -4   37   16    0.001398    0.000001
    0    0   -4   38   16    0.007614    0.000032
    0    0   -4   39   16   -0.004806   -0.000006
    0    0   -4   40   16    0.008647   -0.000039
    0    0   -4    1   17    0.009210    0.000030
    0    0   -4    2   17    0.007214   -0.000030
    0    0   -4    3   17    0.007985    0.000018
    0    0   -4    4   17    0.005702    0.000011
    0    0   -4    5   17    0.005580   -0.000027
    0    0   -4    6   17    0.003367    0.000034
    0    0   -4    7   17    0.005868   -0.000012
    0    0   -4    8   17    0.006361   -0.000006
    0    0   -4    9   17   -0.000723    0.000025
    0    0   -4   10   17    0.000067   -0.000042
    0    0   -4   11   17    0.003082    0.000020
    0    0   -4   12   17    0.000602    0.000034
    0    0   -4   13   17    0.002039   -0.000024
    0    0   -4   14   17   -0.001521    0.000044
    0    0   -4   15   17    0.002330   -0.000015
    0    0   -4   16   17   -0.001910   -0.000028
    0    0   -4   17   17    0.010679    0.000000
    0    0   -4   18   17    0.017445   -0.000023
    0    0   -4   19   17    0.005637    0.000007
    0    0   -4   20   17    0.009414   -0.000023
    0    0   -4   21   17    0.010868    0.000006
    0    0   -4   22   17    0.004175    0.000001
    0    0   -4   23   17    0.002410   -0.000032
    0    0   -4   24   17    0.011941    0.000028
    0    0   -4   25   17    0.029378    0.000016
    0    0   -4   26   17    0.015096    0.000011
    0    0   -4   27   17    0.015818    0.000029
    0    0   -4   28   17    0.007258    0.000034
    0    0   -4   29   17   -0.010163   -0.000007
    0    0   -4   30   17   -0.012343    0.000003
    0    0   -4   31   17   -0.002045    0.000014
    0    0   -4   32   17   -0.002453   -0.000050
    0    0   -4   33   17   -0.003970    0.000003
    0    0   -4   34   17    0.000121   -0.000018
    0    0   -4   35   17    0.001008   -0.000013
    0    0   -4   36   17   -0.004704    0.000048
    0    0   -4   37   17   -0.006721   -0.000012
    0    0   -4   38   17   -0.009347   -0.000022
    0    0   -4   39   17   -0.003051   -0.000023
    0    0   -4   40   17   -0.011444    0.000023
    0    0   -4    1   18    0.004304   -0.000026
    0    0   -4    2   18    0.002721    0.000004
    0    0   -4    3   18    0.002465    0.000020
    0    0   -4    4   18    0.006439   -0.000029
    0    0   -4    5   18    0.001682    0.000026
    0    0   -4    6   18    0.004282   -0.000005
    0    0   -4    7   18    0.002611   -0.000023
    0    0   -4    8   18    0.008910    0.000019
    0    0   -4    9   18   -0.001167    0.000025
    0    0   -4   10   18   -0.004675   -0.000047
    0    0   -4   11   18    0.005881    0.000025
    0    0   -4   12   18   -0.002983   -0.000024
    0    0   -4   13   18    0.002166   -0.000025
    0    0   -4   14   18   -0.003736    0.000043
    0    0   -4   15   18    0.001820   -0.000033
    0    0   -4   16   18   -0.005255    0.000022
    0    0   -4   17   18    0.017445    0.000023
    0    0   -4   18   18    0.025161    0.000000
    0    0   -4   19   18    0.009368   -0.000023
    0    0   -4   20   18    0.011992    0.000004
    0    0   -4   21   18    0.013374    0.000009
    0    0   -4   22   18    0.009619   -0.000015
    0    0   -4   23   18    0.011250    0.000031
    0    0   -4   24   18    0.019743   -0.000021
    0    0   -4   25   18   -0.017084   -0.000022
    0    0   -4   26   18   -0.024797   -0.000020
    0    0   -4   27   18   -0.012930   -0.000008
    0    0   -4   28   18   -0.045033   -0.000004
    0    0   -4   29   18   -0.001914    0.000009
    0    0   -4   30   18   -0.004706   -0.000047
    0    0   -4   31   18    0.011395   -0.000014
    0    0   -4   32   18    0.005319    0.000004
    0    0   -4   33   18   -0.001651    0.000044
    0    0   -4   34   18    0.001847   -0.000006
    0    0   -4   35   18    0.009341   -0.000013
    0    0   -4   36   18    0.009360    0.000004
    0    0   -4   37   18    0.013213   -0.000014
    0    0   -4   38   18    0.009870   -0.000018
    0    0   -4   39   18    0.019855    0.000011
    0    0   -4   40   18    0.012229    0.000031
    0    0   -4    1   19    0.008068   -0.000016
    0    0   -4    2   19    0.007126    0.000027
    0    0   -4    3   19    0.009258   -0.000025
    0    0   -4    4   19    0.006392    0.000011
    0    0   -4    5   19    0.005789    0.000008
    0    0   -4    6   19    0.003459   -0.000032
    0    0   -4    7   19    0.005535    0.000022
    0    0   -4    8   19    0.005666   -0.000017
    0    0   -4    9   19   -0.000646   -0.000021
    0    0   -4   10   19   -0.002029    0.000028
    0    0   -4   11   19    0.002388    0.000018
    0    0   -4   12   19   -0.001417   -0.000040
    0    0   -4   13   19    0.001969    0.000019
    0    0   -4   14   19    0.000731   -0.000036
    0    0   -4   15   19    0.003020   -0.000022
    0    0   -4   16   19   -0.000029    0.000037
    0    0   -4   17   19    0.005637   -0.000007
    0    0   -4   18   19    0.009368    0.000023
    0    0   -4   19   19    0.010748    0.000000
    0    0   -4   20   19    0.017352    0.000019
    0    0   -4   21   19    0.011974   -0.000027
    0    0   -4   22   19    0.002419    0.000032
    0    0   -4   23   19    0.004117    0.000000
    0    0   -4   24   19    0.010951   -0.000002
    0    0   -4   25   19    0.029356   -0.000017
    0    0   -4   26   19    0.007275   -0.000039
    0    0   -4   27   19    0.015830   -0.000030
    0    0   -4   28   19    0.015139   -0.000016
    0    0   -4   29   19   -0.012307   -0.000004
    0    0   -4   30   19   -0.010154    0.000006
    0    0   -4   31   19   -0.004692   -0.000043
    0    0   -4   32   19    0.000860    0.000010
    0    0   -4   33   19    0.000127    0.000016
    0    0   -4   34   19   -0.003970    0.000001
    0    0   -4   35   19   -0.002476    0.000052
    0    0   -4   36   19   -0.001912   -0.000011
    0    0   -4   37   19   -0.009297    0.000028
    0    0   -4   38   19   -0.006776    0.000004
    0    0   -4   39   19   -0.011448   -0.000013
    0    0   -4   40   19   -0.002969    0.000018
    0    0   -4    1   20    0.002383   -0.000016
    0    0   -4    2   20    0.002740   -0.000010
    0    0   -4    3   20    0.004363    0.000023
    0    0   -4    4   20    0.008841   -0.000016
    0    0   -4    5   20    0.002686    0.000020
    0    0   -4    6   20    0.004253    0.000010
    0    0   -4    7   20    0.001620   -0.000020
    0    0   -4    8   20    0.006516    0.000026
    0    0   -4    9   20   -0.001098   -0.000027
    0    0   -4   10   20   -0.005386   -0.000024
    0    0   -4   11   20    0.001908    0.000028
    0    0   -4   12   20   -0.003825   -0.000038
    0    0   -4   13   20    0.002087    0.000026
    0    0   -4   14   20   -0.002857    0.000025
    0    0   -4   15   20    0.005799   -0.000021
    0    0   -4   16   20   -0.004595    0.000042
    0    0   -4   17   20    0.009414    0.000023
    0    0   -4   18   20    0.011992   -0.000004
    0    0   -4   19   20    0.017352   -0.000019
    0    0   -4   20   20    0.025220    0.000000
    0    0   -4   21   20    0.019774    0.000022
    0    0   -4   22   20    0.011182   -0.000032
    0    0   -4   23   20    0.009704    0.000012
    0    0   -4   24   20    0.013331   -0.000007
    0    0   -4   25   20   -0.017106    0.000028
    0    0   -4   26   20   -0.045117    0.000008
    0    0   -4   27   20   -0.012911    0.000004
    0    0   -4   28   20   -0.024787    0.000021
    0    0   -4   29   20   -0.004702    0.000046
    0    0   -4   30   20   -0.002054   -0.000009
    0    0   -4   31   20    0.009384   -0.000001
    0    0   -4   32   20    0.009363    0.000014
    0    0   -4   33   20    0.001967    0.000002
    0    0   -4   34   20   -0.001672   -0.000042
    0    0   -4   35   20    0.005336   -0.000003
    0    0   -4   36   20    0.011400    0.000011
    0    0   -4   37   20    0.009824    0.000017
    0    0   -4   38   20    0.013139    0.000006
    0    0   -4   39   20    0.012252   -0.000028
    0    0   -4   40   20    0.019885   -0.000007
    0    0   -4    1   21    0.002724    0.000024
    0    0   -4    2   21    0.002839   -0.000000
    0    0   -4    3   21    0.003654   -0.000021
    0    0   -4    4   21    0.008085    0.000019
    0    0   -4    5   21    0.004625   -0.000022
    0    0   -4    6   21    0.004165    0.000005
    0    0   -4    7   21    0.002829    0.000019
    0    0   -4    8   21    0.005680   -0.000032
    0    0   -4    9   21   -0.000196   -0.000021
    0    0   -4   10   21   -0.002537    0.000043
    0    0   -4   11   21    0.000678   -0.000030
    0    0   -4   12   21   -0.006014    0.000025
    0    0   -4   13   21    0.000631    0.000026
    0    0   -4   14   21   -0.005266   -0.000043
    0    0   -4   15   21    0.004744    0.000020
    0    0   -4   16   21   -0.001729   -0.000023
    0    0   -4   17   21    0.010868   -0.000006
    0    0   -4   18   21    0.013374   -0.000009
    0    0   -4   19   21    0.011974    0.000027
    0    0   -4   20   21    0.019774   -0.000022
    0    0   -4   21   21    0.023161    0.000000
    0    0   -4   22   21    0.019496    0.000020
    0    0   -4   23   21    0.010838   -0.000016
    0    0   -4   24   21    0.009463    0.000005
    0    0   -4   25   21   -0.010541   -0.000003
    0    0   -4   26   21   -0.030553   -0.000011
    0    0   -4   27   21   -0.014256   -0.000019
    0    0   -4   28   21   -0.010904   -0.000003
    0    0   -4   29   21    0.000855   -0.000005
    0    0   -4   30   21   -0.002459    0.000051
    0    0   -4   31   21    0.009367   -0.000014
    0    0   -4   32   21    0.003596    0.000002
    0    0   -4   33   21   -0.003789   -0.000042
    0    0   -4   34   21   -0.000857    0.000013
    0    0   -4   35   21    0.006074   -0.000012
    0    0   -4   36   21    0.005323   -0.000007
    0    0   -4   37   21    0.014307    0.000007
    0    0   -4   38   21    0.003586    0.000029
    0    0   -4   39   21    0.009552   -0.000006
    0    0   -4   40   21    0.005168   -0.000013
    0    0   -4    1   22    0.005510   -0.000028
    0    0   -4    2   22    0.003345    0.000033
    0    0   -4    3   22    0.005776   -0.000010
    0    0   -4    4   22    0.005576   -0.000004
    0    0   -4    5   22    0.008071    0.000031
    0    0   -4    6   22    0.006379   -0.000031
    0    0   -4    7   22    0.007025    0.000015
    0    0   -4    8   22    0.005475    0.000012
    0    0   -4    9   22    0.001620   -0.000026
    0    0   -4   10   22   -0.001251    0.000045
    0    0   -4   11   22    0.000854   -0.000013
    0    0   -4   12   22   -0.003356   -0.000029
    0    0   -4   13   22   -0.001612    0.000025
    0    0   -4   14   22   -0.001199   -0.000046
    0    0   -4   15   22    0.002136    0.000020
    0    0   -4   16   22    0.001040    0.000032
    0    0   -4   17   22    0.004175   -0.000001
    0    0   -4   18   22    0.009619    0.000015
    0    0   -4   19   22    0.002419   -0.000032
    0    0   -4   20   22    0.011182    0.000032
    0    0   -4   21   22    0.019496   -0.000020
    0    0   -4   22   22    0.013747    0.000000
    0    0   -4   23   22    0.008231    0.000006
    0    0   -4   24   22    0.010890   -0.000016
    0    0   -4   25   22    0.021237    0.000032
    0    0   -4   26   22    0.000352    0.000021
    0    0   -4   27   22    0.011364    0.000018
    0    0   -4   28   22    0.011198   -0.000000
    0    0   -4   29   22    0.000130   -0.000019
    0    0   -4   30   22   -0.003970   -0.000003
    0    0   -4   31   22    0.001965   -0.000010
    0    0   -4   32   22   -0.003795    0.000045
    0    0   -4   33   22   -0.008574    0.000001
    0    0   -4   34   22   -0.006240   -0.000015
    0    0   -4   35   22   -0.000985    0.000019
    0    0   -4   36   22   -0.001645   -0.000042
    0    0   -4   37   22   -0.008616   -0.000023
    0    0   -4   38   22   -0.020385    0.000014
    0    0   -4   39   22   -0.003756   -0.000013
    0    0   -4   40   22   -0.007544   -0.000024
    0    0   -4    1   23    0.005685    0.000007
    0    0   -4    2   23    0.003430   -0.000029
    0    0   -4    3   23    0.005467    0.000025
    0    0   -4    4   23    0.005451   -0.000017
    0    0   -4    5   23    0.007109   -0.000013
    0    0   -4    6   23    0.006288    0.000028
    0    0   -4    7   23    0.008109   -0.000026
    0    0   -4    8   23    0.005611    0.000009
    0    0   -4    9   23    0.001546    0.000020
    0    0   -4   10   23    0.001172   -0.000033
    0    0   -4   11   23    0.002085   -0.000021
    0    0   -4   12   23   -0.001290    0.000040
    0    0   -4   13   23   -0.001537   -0.000019
    0    0   -4   14   23   -0.003486    0.000030
    0    0   -4   15   23    0.000920    0.000016
    0    0   -4   16   23   -0.001157   -0.000040
    0    0   -4   17   23    0.002410    0.000032
    0    0   -4   18   23    0.011250   -0.000031
    0    0   -4   19   23    0.004117   -0.000000
    0    0   -4   20   23    0.009704   -0.000012
    0    0   -4   21   23    0.010838    0.000016
    0    0   -4   22   23    0.008231   -0.000006
    0    0   -4   23   23    0.013792    0.000000
    0    0   -4   24   23    0.019437    0.000016
    0    0   -4   25   23    0.021234   -0.000029
    0    0   -4   26   23    0.011230   -0.000001
    0    0   -4   27   23    0.011360   -0.000019
    0    0   -4   28   23    0.000275   -0.000027
    0    0   -4   29   23   -0.003974    0.000006
    0    0   -4   30   23    0.000116    0.000018
    0    0   -4   31   23   -0.001670    0.000044
    0    0   -4   32   23   -0.000856   -0.000017
    0    0   -4   33   23   -0.006236    0.000013
    0    0   -4   34   23   -0.008570   -0.000003
    0    0   -4   35   23   -0.003755   -0.000043
    0    0   -4   36   23    0.001853    0.000007
    0    0   -4   37   23   -0.020388   -0.000011
    0    0   -4   38   23   -0.008550    0.000015
    0    0   -4   39   23   -0.007519    0.000028
    0    0   -4   40   23   -0.003803    0.000019
    0    0   -4    1   24    0.003730    0.000019
    0    0   -4    2   24    0.002829    0.000006
    0    0   -4    3   24    0.002673   -0.000018
    0    0   -4    4   24    0.005749    0.000030
    0    0   -4    5   24    0.002760   -0.000017
    0    0   -4    6   24    0.004194   -0.000009
    0    0   -4    7   24    0.004684    0.000018
    0    0   -4    8   24    0.008005   -0.000015
    0    0   -4    9   24   -0.000258    0.000023
    0    0   -4   10   24   -0.001601    0.000024
    0    0   -4   11   24    0.004672   -0.000015
    0    0   -4   12   24   -0.005188    0.000039
    0    0   -4   13   24    0.000711   -0.000028
    0    0   -4   14   24   -0.006130   -0.000025
    0    0   -4   15   24    0.000740    0.000026
    0    0   -4   16   24   -0.002607   -0.000037
    0    0   -4   17   24    0.011941   -0.000028
    0    0   -4   18   24    0.019743    0.000021
    0    0   -4   19   24    0.010951    0.000002
    0    0   -4   20   24    0.013331    0.000007
    0    0   -4   21   24    0.009463   -0.000005
    0    0   -4   22   24    0.010890    0.000016
    0    0   -4   23   24    0.019437   -0.000016
    0    0   -4   24   24    0.023168    0.000000
    0    0   -4   25   24   -0.010490    0.000002
    0    0   -4   26   24   -0.010915    0.000006
    0    0   -4   27   24   -0.014285    0.000016
    0    0   -4   28   24   -0.030492    0.000016
    0    0   -4   29   24   -0.002473   -0.000050
    0    0   -4   30   24    0.001009    0.000001
    0    0   -4   31   24    0.005332    0.000007
    0    0   -4   32   24    0.006074    0.000009
    0    0   -4   33   24   -0.000985   -0.000010
    0    0   -4   34   24   -0.003760    0.000043
    0    0   -4   35   24    0.003567   -0.000002
    0    0   -4   36   24    0.009332    0.000015
    0    0   -4   37   24    0.003600   -0.000031
    0    0   -4   38   24    0.014365   -0.000008
    0    0   -4   39   24    0.005137    0.000015
    0    0   -4   40   24    0.009473    0.000002
    0    0   -4    1   25    0.004609    0.000016
    0    0   -4    2   25    0.016690    0.000000
    0    0   -4    3   25    0.004555   -0.000013
    0    0   -4    4   25   -0.017665    0.000036
    0    0   -4    5   25    0.000839   -0.000022
    0    0   -4    6   25    0.005833    0.000004
    0    0   -4    7   25    0.000893    0.000019
    0    0   -4    8   25   -0.017756   -0.000036
    0    0   -4    9   25    0.016692    0.000007
    0    0   -4   10   25    0.004565   -0.000007
    0    0   -4   11   25   -0.017680    0.000022
    0    0   -4   12   25    0.000849   -0.000008
    0    0   -4   13   25    0.005832   -0.000003
    0    0   -4   14   25    0.000879    0.000015
    0    0   -4   15   25   -0.017741   -0.000021
    0    0   -4   16   25    0.004598    0.000002
    0    0   -4   17   25    0.029378   -0.000016
    0    0   -4   18   25   -0.017084    0.000022
    0    0   -4   19   25    0.029356    0.000017
    0    0   -4   20   25   -0.017106   -0.000028
    0    0   -4   21   25   -0.010541    0.000003
    0    0   -4   22   25    0.021237   -0.000032
    0    0   -4   23   25    0.021234    0.000029
    0    0   -4   24   25   -0.010490   -0.000002
    0    0   -4   25   25    0.017131   -0.000000
    0    0   -4   26   25   -0.024502   -0.000035
    0    0   -4   27   25    0.019455   -0.000002
    0    0   -4   28   25   -0.024429    0.000030
    0    0   -4   29   25    0.029362    0.000023
    0    0   -4   30   25    0.029367   -0.000018
    0    0   -4   31   25   -0.017113   -0.000031
    0    0   -4   32   25   -0.010542   -0.000007
    0    0   -4   33   25    0.021238   -0.000023
    0    0   -4   34   25    0.021225    0.000025
    0    0   -4   35   25   -0.010494   -0.000003
    0    0   -4   36   25   -0.017077    0.000020
    0    0   -4   37   25    0.014870    0.000007
    0    0   -4   38   25    0.014834   -0.000011
    0    0   -4   39   25   -0.006198   -0.000012
    0    0   -4   40   25   -0.006158    0.000014
    0    0   -4    1   26   -0.002287    0.000010
    0    0   -4    2   26    0.015144   -0.000021
    0    0   -4    3   26    0.002427    0.000008
    0    0   -4    4   26   -0.012308   -0.000002
    0    0   -4    5   26    0.007285   -0.000017
    0    0   -4    6   26    0.004202    0.000019
    0    0   -4    7   26    0.002505   -0.000006
    0    0   -4    8   26   -0.013500    0.000007
    0    0   -4    9   26    0.015155   -0.000036
    0    0   -4   10   26    0.002420    0.000022
    0    0   -4   11   26   -0.012307   -0.000009
    0    0   -4   12   26    0.007289   -0.000022
    0    0   -4   13   26    0.004190    0.000034
    0    0   -4   14   26    0.002504   -0.000018
    0    0   -4   15   26   -0.013502    0.000013
    0    0   -4   16   26   -0.002292    0.000018
    0    0   -4   17   26    0.015096   -0.000011
    0    0   -4   18   26   -0.024797    0.000020
    0    0   -4   19   26    0.007275    0.000039
    0    0   -4   20   26   -0.045117   -0.000008
    0    0   -4   21   26   -0.030553    0.000011
    0    0   -4   22   26    0.000352   -0.000021
    0    0   -4   23   26    0.011230    0.000001
    0    0   -4   24   26   -0.010915   -0.000006
    0    0   -4   25   26   -0.024502    0.000035
    0    0   -4   26   26   -0.024138   -0.000000
    0    0   -4   27   26   -0.022955   -0.000038
    0    0   -4   28   26   -0.023550    0.000001
    0    0   -4   29   26    0.007283    0.000027
    0    0   -4   30   26    0.015096   -0.000014
    0    0   -4   31   26   -0.045112   -0.000000
    0    0   -4   32   26   -0.030545    0.000003
    0    0   -4   33   26    0.000337   -0.000016
    0    0   -4   34   26    0.011231    0.000007
    0    0   -4   35   26   -0.010936   -0.000008
    0    0   -4   36   26   -0.024791    0.000025
    0    0   -4   37   26    0.000237    0.000006
    0    0   -4   38   26    0.026647    0.000017
    0    0   -4   39   26    0.029482   -0.000002
    0    0   -4   40   26    0.002895   -0.000013
    0    0   -4    1   27    0.000261   -0.000026
    0    0   -4    2   27    0.007188    0.000003
    0    0   -4    3   27    0.000315    0.000020
    0    0   -4    4   27   -0.012997   -0.000036
    0    0   -4    5   27    0.006450    0.000019
    0    0   -4    6   27    0.011254   -0.000004
    0    0   -4    7   27    0.006395   -0.000014
    0    0   -4    8   27   -0.012897    0.000033
    0    0   -4    9   27    0.007188   -0.000004
    0    0   -4   10   27    0.000313    0.000015
    0    0   -4   11   27   -0.012986   -0.000023
    0    0   -4   12   27    0.006441    0.000006
    0    0   -4   13   27    0.011253    0.000003
    0    0   -4   14   27    0.006402   -0.000009
    0    0   -4   15   27   -0.012909    0.000020
    0    0   -4   16   27    0.000272   -0.000013
    0    0   -4   17   27    0.015818   -0.000029
    0    0   -4   18   27   -0.012930    0.000008
    0    0   -4   19   27    0.015830    0.000030
    0    0   -4   20   27   -0.012911   -0.000004
    0    0   -4   21   27   -0.014256    0.000019
    0    0   -4   22   27    0.011364   -0.000018
    0    0   -4   23   27    0.011360    0.000019
    0    0   -4   24   27   -0.014285   -0.000016
    0    0   -4   25   27    0.019455    0.000002
    0    0   -4   26   27   -0.022955    0.000038
    0    0   -4   27   27    0.009790   -0.000000
    0    0   -4   28   27   -0.023014   -0.000038
    0    0   -4   29   27    0.015837    0.000028
    0    0   -4   30   27    0.015818   -0.000026
    0    0   -4   31   27   -0.012904   -0.000010
    0    0   -4   32   27   -0.014259    0.000021
    0    0   -4   33   27    0.011360   -0.000021
    0    0   -4   34   27    0.011361    0.000026
    0    0   -4   35   27   -0.014291   -0.000017
    0    0   -4   36   27   -0.012926    0.000003
    0    0   -4   37   27   -0.015432   -0.000012
    0    0   -4   38   27   -0.015396    0.000013
    0    0   -4   39   27    0.018574    0.000010
    0    0   -4   40   27    0.018544   -0.000009
    0    0   -4    1   28    0.002466   -0.000015
    0    0   -4    2   28    0.015047    0.000023
    0    0   -4    3   28   -0.002257   -0.000004
    0    0   -4    4   28   -0.013525   -0.000012
    0    0   -4    5   28    0.002459    0.000011
    0    0   -4    6   28    0.004265   -0.000019
    0    0   -4    7   28    0.007246    0.000010
    0    0   -4    8   28   -0.012248    0.000004
    0    0   -4    9   28    0.015034    0.000040
    0    0   -4   10   28   -0.002244   -0.000021
    0    0   -4   11   28   -0.013525   -0.000003
    0    0   -4   12   28    0.002449    0.000016
    0    0   -4   13   28    0.004277   -0.000034
    0    0   -4   14   28    0.007234    0.000028
    0    0   -4   15   28   -0.012248   -0.000005
    0    0   -4   16   28    0.002475   -0.000019
    0    0   -4   17   28    0.007258   -0.000034
    0    0   -4   18   28   -0.045033    0.000004
    0    0   -4   19   28    0.015139    0.000016
    0    0   -4   20   28   -0.024787   -0.000021
    0    0   -4   21   28   -0.010904    0.000003
    0    0   -4   22   28    0.011198    0.000000
    0    0   -4   23   28    0.000275    0.000027
    0    0   -4   24   28   -0.030492   -0.000016
    0    0   -4   25   28   -0.024429   -0.000030
    0    0   -4   26   28   -0.023550   -0.000001
    0    0   -4   27   28   -0.023014    0.000038
    0    0   -4   28   28   -0.024087   -0.000000
    0    0   -4   29   28    0.015151    0.000014
    0    0   -4   30   28    0.007250   -0.000023
    0    0   -4   31   28   -0.024791   -0.000024
    0    0   -4   32   28   -0.010894    0.000014
    0    0   -4   33   28    0.011189   -0.000010
    0    0   -4   34   28    0.000277    0.000017
    0    0   -4   35   28   -0.030499   -0.000004
    0    0   -4   36   28   -0.045019   -0.000007
    0    0   -4   37   28    0.026667   -0.000016
    0    0   -4   38   28    0.000303   -0.000013
    0    0   -4   39   28    0.002880    0.000008
    0    0   -4   40   28    0.029440    0.000007
    0    0   -4    1   29   -0.000019    0.000042
    0    0   -4    2   29   -0.000643   -0.000029
    0    0   -4    3   29   -0.002030    0.000021
    0    0   -4    4   29    0.002399    0.000025
    0    0   -4    5   29   -0.001427   -0.000044
    0    0   -4    6   29    0.001968    0.000027
    0    0   -4    7   29    0.000732   -0.000026
    0    0   -4    8   29    0.003008   -0.000029
    0    0   -4    9   29    0.007139    0.000023
    0    0   -4   10   29    0.009268   -0.000025
    0    0   -4   11   29    0.006386    0.000002
    0    0   -4   12   29    0.005798    0.000020
    0    0   -4   13   29    0.003450   -0.000027
    0    0   -4   14   29    0.005530    0.000021
    0    0   -4   15   29    0.005672   -0.000007
    0    0   -4   16   29    0.008061   -0.000026
    0    0   -4   17   29   -0.010163    0.000007
    0    0   -4   18   29   -0.001914   -0.000009
    0    0   -4   19   29   -0.012307    0.000004
    0    0   -4   20   29   -0.004702   -0.000046
    0    0   -4   21   29    0.000855    0.000005
    0    0   -4   22   29    0.000130    0.000019
    0    0   -4   23   29   -0.003974   -0.000006
    0    0   -4   24   29   -0.002473    0.000050
    0    0   -4   25   29    0.029362   -0.000023
    0    0   -4   26   29    0.007283   -0.000027
    0    0   -4   27   29    0.015837   -0.000028
    0    0   -4   28   29    0.015151   -0.000014
    0    0   -4   29   29    0.010742    0.000000
    0    0   -4   30   29    0.005638    0.000003
    0    0   -4   31   29    0.017352    0.000022
    0    0   -4   32   29    0.011973   -0.000026
    0    0   -4   33   29    0.002416    0.000025
    0    0   -4   34   29    0.004127    0.000001
    0    0   -4   35   29    0.010952   -0.000007
    0    0   -4   36   29    0.009364    0.000022
    0    0   -4   37   29    0.003027    0.000033
    0    0   -4   38   29   -0.010928   -0.000016
    0    0   -4   39   29    0.005011   -0.000024
    0    0   -4   40   29   -0.014394    0.000017
    0    0   -4    1   30   -0.001909   -0.000021
    0    0   -4    2   30   -0.000726    0.000024
    0    0   -4    3   30    0.000057   -0.000037
    0    0   -4    4   30    0.003092    0.000031
    0    0   -4    5   30    0.000600    0.000028
    0    0   -4    6   30    0.002045   -0.000023
    0    0   -4    7   30   -0.001511    0.000039
    0    0   -4    8   30    0.002318   -0.000027
    0    0   -4    9   30    0.007210   -0.000022
    0    0   -4   10   30    0.007990    0.000023
    0    0   -4   11   30    0.005694    0.000012
    0    0   -4   12   30    0.005592   -0.000019
    0    0   -4   13   30    0.003373    0.000024
    0    0   -4   14   30    0.005864   -0.000017
    0    0   -4   15   30    0.006365   -0.000005
    0    0   -4   16   30    0.009200    0.000020
    0    0   -4   17   30   -0.012343   -0.000003
    0    0   -4   18   30   -0.004706    0.000047
    0    0   -4   19   30   -0.010154   -0.000006
    0    0   -4   20   30   -0.002054    0.000009
    0    0   -4   21   30   -0.002459   -0.000051
    0    0   -4   22   30   -0.003970    0.000003
    0    0   -4   23   30    0.000116   -0.000018
    0    0   -4   24   30    0.001009   -0.000001
    0    0   -4   25   30    0.029367    0.000018
    0    0   -4   26   30    0.015096    0.000014
    0    0   -4   27   30    0.015818    0.000026
    0    0   -4   28   30    0.007250    0.000023
    0    0   -4   29   30    0.005638   -0.000003
    0    0   -4   30   30    0.010696    0.000000
    0    0   -4   31   30    0.009416   -0.000020
    0    0   -4   32   30    0.010870    0.000002
    0    0   -4   33   30    0.004170   -0.000001
    0    0   -4   34   30    0.002417   -0.000025
    0    0   -4   35   30    0.011941    0.000028
    0    0   -4   36   30    0.017446   -0.000016
    0    0   -4   37   30   -0.010834    0.000012
    0    0   -4   38   30    0.002965   -0.000028
    0    0   -4   39   30   -0.014472   -0.000016
    0    0   -4   40   30    0.005062    0.000026
    0    0   -4    1   31   -0.004589    0.000047
    0    0   -4    2   31   -0.001102   -0.000017
    0    0   -4    3   31   -0.005386   -0.000029
    0    0   -4    4   31    0.001901    0.000029
    0    0   -4    5   31   -0.003828   -0.000043
    0    0   -4    6   31    0.002094    0.000017
    0    0   -4    7   31   -0.002854    0.000031
    0    0   -4    8   31    0.005803   -0.000021
    0    0   -4    9   31    0.002746   -0.000009
    0    0   -4   10   31    0.004355    0.000031
    0    0   -4   11   31    0.008834   -0.000025
    0    0   -4   12   31    0.002687    0.000016
    0    0   -4   13   31    0.004250    0.000009
    0    0   -4   14   31    0.001631   -0.000029
    0    0   -4   15   31    0.006517    0.000034
    0    0   -4   16   31    0.002382   -0.000011
    0    0   -4   17   31   -0.002045   -0.000014
    0    0   -4   18   31    0.011395    0.000014
    0    0   -4   19   31   -0.004692    0.000043
    0    0   -4   20   31    0.009384    0.000001
    0    0   -4   21   31    0.009367    0.000014
    0    0   -4   22   31    0.001965    0.000010
    0    0   -4   23   31   -0.001670   -0.000044
    0    0   -4   24   31    0.005332   -0.000007
    0    0   -4   25   31   -0.017113    0.000031
    0    0   -4   26   31   -0.045112    0.000000
    0    0   -4   27   31   -0.012904    0.000010
    0    0   -4   28   31   -0.024791    0.000024
    0    0   -4   29   31    0.017352   -0.000022
    0    0   -4   30   31    0.009416    0.000020
    0    0   -4   31   31    0.025218    0.000000
    0    0   -4   32   31    0.019763    0.000030
    0    0   -4   33   31    0.011182   -0.000032
    0    0   -4   34   31    0.009707    0.000014
    0    0   -4   35   31    0.013326   -0.000007
    0    0   -4   36   31    0.011980   -0.000010
    0    0   -4   37   31    0.027767    0.000024
    0    0   -4   38   31    0.020419    0.000024
    0    0   -4   39   31    0.036199   -0.000019
    0    0   -4   40   31    0.010745   -0.000013
    0    0   -4    1   32   -0.001734   -0.000031
    0    0   -4    2   32   -0.000202   -0.000015
    0    0   -4    3   32   -0.002529    0.000039
    0    0   -4    4   32    0.000677   -0.000023
    0    0   -4    5   32   -0.006010    0.000033
    0    0   -4    6   32    0.000637    0.000020
    0    0   -4    7   32   -0.005274   -0.000040
    0    0   -4    8   32    0.004740    0.000012
    0    0   -4    9   32    0.002845   -0.000009
    0    0   -4   10   32    0.003649   -0.000012
    0    0   -4   11   32    0.008095    0.000024
    0    0   -4   12   32    0.004631   -0.000023
    0    0   -4   13   32    0.004163    0.000014
    0    0   -4   14   32    0.002836    0.000010
    0    0   -4   15   32    0.005670   -0.000037
    0    0   -4   16   32    0.002719    0.000023
    0    0   -4   17   32   -0.002453    0.000050
    0    0   -4   18   32    0.005319   -0.000004
    0    0   -4   19   32    0.000860   -0.000010
    0    0   -4   20   32    0.009363   -0.000014
    0    0   -4   21   32    0.003596   -0.000002
    0    0   -4   22   32   -0.003795   -0.000045
    0    0   -4   23   32   -0.000856    0.000017
    0    0   -4   24   32    0.006074   -0.000009
    0    0   -4   25   32   -0.010542    0.000007
    0    0   -4   26   32   -0.030545   -0.000003
    0    0   -4   27   32   -0.014259   -0.000021
    0    0   -4   28   32   -0.010894   -0.000014
    0    0   -4   29   32    0.011973    0.000026
    0    0   -4   30   32    0.010870   -0.000002
    0    0   -4   31   32    0.019763   -0.000030
    0    0   -4   32   32    0.023150    0.000000
    0    0   -4   33   32    0.019499    0.000014
    0    0   -4   34   32    0.010837   -0.000017
    0    0   -4   35   32    0.009466    0.000012
    0    0   -4   36   32    0.013374   -0.000007
    0    0   -4   37   32    0.004735    0.000001
    0    0   -4   38   32    0.028877    0.000013
    0    0   -4   39   32    0.012192   -0.000023
    0    0   -4   40   32    0.020482   -0.000024
    0    0   -4    1   33    0.001043    0.000026
    0    0   -4    2   33    0.001622   -0.000024
    0    0   -4    3   33   -0.001245    0.000039
    0    0   -4    4   33    0.000848   -0.000023
    0    0   -4    5   33   -0.003359   -0.000022
    0    0   -4    6   33   -0.001615    0.000022
    0    0   -4    7   33   -0.001205   -0.000040
    0    0   -4    8   33    0.002141    0.000029
    0    0   -4    9   33    0.003354    0.000023
    0    0   -4   10   33    0.005770   -0.000014
    0    0   -4   11   33    0.005576   -0.000005
    0    0   -4   12   33    0.008065    0.000022
    0    0   -4   13   33    0.006367   -0.000021
    0    0   -4   14   33    0.007028    0.000020
    0    0   -4   15   33    0.005472    0.000013
    0    0   -4   16   33    0.005513   -0.000021
    0    0   -4   17   33   -0.003970   -0.000003
    0    0   -4   18   33   -0.001651   -0.000044
    0    0   -4   19   33    0.000127   -0.000016
    0    0   -4   20   33    0.001967   -0.000002
    0    0   -4   21   33   -0.003789    0.000042
    0    0   -4   22   33   -0.008574   -0.000001
    0    0   -4   23   33   -0.006236   -0.000013
    0    0   -4   24   33   -0.000985    0.000010
    0    0   -4   25   33    0.021238    0.000023
    0    0   -4   26   33    0.000337    0.000016
    0    0   -4   27   33    0.011360    0.000021
    0    0   -4   28   33    0.011189    0.000010
    0    0   -4   29   33    0.002416   -0.000025
    0    0   -4   30   33    0.004170    0.000001
    0    0   -4   31   33    0.011182    0.000032
    0    0   -4   32   33    0.019499   -0.000014
    0    0   -4   33   33    0.013754    0.000000
    0    0   -4   34   33    0.008232   -0.000002
    0    0   -4   35   33    0.010892   -0.000017
    0    0   -4   36   33    0.009620    0.000010
    0    0   -4   37   33   -0.013695   -0.000016
    0    0   -4   38   33    0.004103    0.000033
    0    0   -4   39   33   -0.004013    0.000012
    0    0   -4   40   33    0.010650   -0.000023
    0    0   -4    1   34   -0.001164   -0.000044
    0    0   -4    2   34    0.001540    0.000030
    0    0   -4    3   34    0.001168   -0.000025
    0    0   -4    4   34    0.002078   -0.000027
    0    0   -4    5   34   -0.001287    0.000044
    0    0   -4    6   34   -0.001533   -0.000028
    0    0   -4    7   34   -0.003484    0.000022
    0    0   -4    8   34    0.000924    0.000021
    0    0   -4    9   34    0.003426   -0.000026
    0    0   -4   10   34    0.005459    0.000025
    0    0   -4   11   34    0.005453   -0.000007
    0    0   -4   12   34    0.007108   -0.000023
    0    0   -4   13   34    0.006293    0.000025
    0    0   -4   14   34    0.008116   -0.000027
    0    0   -4   15   34    0.005607    0.000001
    0    0   -4   16   34    0.005687    0.000018
    0    0   -4   17   34    0.000121    0.000018
    0    0   -4   18   34    0.001847    0.000006
    0    0   -4   19   34   -0.003970   -0.000001
    0    0   -4   20   34   -0.001672    0.000042
    0    0   -4   21   34   -0.000857   -0.000013
    0    0   -4   22   34   -0.006240    0.000015
    0    0   -4   23   34   -0.008570    0.000003
    0    0   -4   24   34   -0.003760   -0.000043
    0    0   -4   25   34    0.021225   -0.000025
    0    0   -4   26   34    0.011231   -0.000007
    0    0   -4   27   34    0.011361   -0.000026
    0    0   -4   28   34    0.000277   -0.000017
    0    0   -4   29   34    0.004127   -0.000001
    0    0   -4   30   34    0.002417    0.000025
    0    0   -4   31   34    0.009707   -0.000014
    0    0   -4   32   34    0.010837    0.000017
    0    0   -4   33   34    0.008232    0.000002
    0    0   -4   34   34    0.013792    0.000000
    0    0   -4   35   34    0.019434    0.000019
    0    0   -4   36   34    0.011247   -0.000031
    0    0   -4   37   34    0.004073   -0.000028
    0    0   -4   38   34   -0.013608    0.000016
    0    0   -4   39   34    0.010709    0.000030
    0    0   -4   40   34   -0.004083   -0.000017
    0    0   -4    1   35   -0.002618   -0.000043
    0    0   -4    2   35   -0.000247    0.000013
    0    0   -4    3   35   -0.001601    0.000032
    0    0   -4    4   35    0.004673   -0.000017
    0    0   -4    5   35   -0.005177    0.000044
    0    0   -4    6   35    0.000700   -0.000017
    0    0   -4    7   35   -0.006130   -0.000033
    0    0   -4    8   35    0.000738    0.000028
    0    0   -4    9   35    0.002823    0.000005
    0    0   -4   10   35    0.002678   -0.000029
    0    0   -4   11   35    0.005759    0.000040
    0    0   -4   12   35    0.002750   -0.000012
    0    0   -4   13   35    0.004200   -0.000010
    0    0   -4   14   35    0.004676    0.000028
    0    0   -4   15   35    0.007992   -0.000027
    0    0   -4   16   35    0.003736    0.000014
    0    0   -4   17   35    0.001008    0.000013
    0    0   -4   18   35    0.009341    0.000013
    0    0   -4   19   35   -0.002476   -0.000052
    0    0   -4   20   35    0.005336    0.000003
    0    0   -4   21   35    0.006074    0.000012
    0    0   -4   22   35   -0.000985   -0.000019
    0    0   -4   23   35   -0.003755    0.000043
    0    0   -4   24   35    0.003567    0.000002
    0    0   -4   25   35   -0.010494    0.000003
    0    0   -4   26   35   -0.010936    0.000008
    0    0   -4   27   35   -0.014291    0.000017
    0    0   -4   28   35   -0.030499    0.000004
    0    0   -4   29   35    0.010952    0.000007
    0    0   -4   30   35    0.011941   -0.000028
    0    0   -4   31   35    0.013326    0.000007
    0    0   -4   32   35    0.009466   -0.000012
    0    0   -4   33   35    0.010892    0.000017
    0    0   -4   34   35    0.019434   -0.000019
    0    0   -4   35   35    0.023181    0.000000
    0    0   -4   36   35    0.019737    0.000030
    0    0   -4   37   35    0.028892   -0.000017
    0    0   -4   38   35    0.004815   -0.000014
    0    0   -4   39   35    0.020445    0.000039
    0    0   -4   40   35    0.012069    0.000029
    0    0   -4    1   36   -0.005256    0.000031
    0    0   -4    2   36   -0.001154    0.000018
    0    0   -4    3   36   -0.004683   -0.000041
    0    0   -4    4   36    0.005873    0.000015
    0    0   -4    5   36   -0.002981   -0.000032
    0    0   -4    6   36    0.002157   -0.000019
    0    0   -4    7   36   -0.003728    0.000038
    0    0   -4    8   36    0.001823   -0.000024
    0    0   -4    9   36    0.002718    0.000013
    0    0   -4   10   36    0.002468    0.000008
    0    0   -4   11   36    0.006432   -0.000033
    0    0   -4   12   36    0.001672    0.000024
    0    0   -4   13   36    0.004288   -0.000014
    0    0   -4   14   36    0.002609   -0.000011
    0    0   -4   15   36    0.008911    0.000023
    0    0   -4   16   36    0.004317   -0.000027
    0    0   -4   17   36   -0.004704   -0.000048
    0    0   -4   18   36    0.009360   -0.000004
    0    0   -4   19   36   -0.001912    0.000011
    0    0   -4   20   36    0.011400   -0.000011
    0    0   -4   21   36    0.005323    0.000007
    0    0   -4   22   36   -0.001645    0.000042
    0    0   -4   23   36    0.001853   -0.000007
    0    0   -4   24   36    0.009332   -0.000015
    0    0   -4   25   36   -0.017077   -0.000020
    0    0   -4   26   36   -0.024791   -0.000025
    0    0   -4   27   36   -0.012926   -0.000003
    0    0   -4   28   36   -0.045019    0.000007
    0    0   -4   29   36    0.009364   -0.000022
    0    0   -4   30   36    0.017446    0.000016
    0    0   -4   31   36    0.011980    0.000010
    0    0   -4   32   36    0.013374    0.000007
    0    0   -4   33   36    0.009620   -0.000010
    0    0   -4   34   36    0.011247    0.000031
    0    0   -4   35   36    0.019737   -0.000030
    0    0   -4   36   36    0.025140    0.000000
    0    0   -4   37   36    0.020478   -0.000031
    0    0   -4   38   36    0.027793   -0.000022
    0    0   -4   39   36    0.010671   -0.000001
    0    0   -4   40   36    0.036136    0.000017
    0    0   -4    1   37   -0.002344    0.000010
    0    0   -4    2   37   -0.003767    0.000037
    0    0   -4    3   37   -0.004227   -0.000044
    0    0   -4    4   37    0.011391    0.000049
    0    0   -4    5   37    0.004815   -0.000006
    0    0   -4    6   37   -0.004285   -0.000043
    0    0   -4    7   37   -0.006156    0.000039
    0    0   -4    8   37    0.013908   -0.000043
    0    0   -4    9   37   -0.004582   -0.000007
    0    0   -4   10   37    0.007642    0.000026
    0    0   -4   11   37    0.006949   -0.000007
    0    0   -4   12   37   -0.007464    0.000005
    0    0   -4   13   37   -0.006519   -0.000001
    0    0   -4   14   37    0.004681   -0.000031
    0    0   -4   15   37    0.013048    0.000008
    0    0   -4   16   37    0.001398   -0.000001
    0    0   -4   17   37   -0.006721    0.000012
    0    0   -4   18   37    0.013213    0.000014
    0    0   -4   19   37   -0.009297   -0.000028
    0    0   -4   20   37    0.009824   -0.000017
    0    0   -4   21   37    0.014307   -0.000007
    0    0   -4   22   37   -0.008616    0.000023
    0    0   -4   23   37   -0.020388    0.000011
    0    0   -4   24   37    0.003600    0.000031
    0    0   -4   25   37    0.014870   -0.000007
    0    0   -4   26   37    0.000237   -0.000006
    0    0   -4   27   37   -0.015432    0.000012
    0    0   -4   28   37    0.026667    0.000016
    0    0   -4   29   37    0.003027   -0.000033
    0    0   -4   30   37   -0.010834   -0.000012
    0    0   -4   31   37    0.027767   -0.000024
    0    0   -4   32   37    0.004735   -0.000001
    0    0   -4   33   37   -0.013695    0.000016
    0    0   -4   34   37    0.004073    0.000028
    0    0   -4   35   37    0.028892    0.000017
    0    0   -4   36   37    0.020478    0.000031
    0    0   -4   37   37   -0.062492   -0.000000
    0    0   -4   38   37   -0.038767    0.000011
    0    0   -4   39   37   -0.034462   -0.000001
    0    0   -4   40   37   -0.049770   -0.000012
    0    0   -4    1   38   -0.004209    0.000048
    0    0   -4    2   38   -0.003646   -0.000045
    0    0   -4    3   38   -0.002482   -0.000007
    0    0   -4    4   38    0.014064    0.000048
    0    0   -4    5   38   -0.006165   -0.000045
    0    0   -4    6   38   -0.004425    0.000045
    0    0   -4    7   38    0.004949    0.000005
    0    0   -4    8   38    0.011238   -0.000053
    0    0   -4    9   38   -0.004605    0.000008
    0    0   -4   10   38    0.001492    0.000003
    0    0   -4   11   38    0.013038   -0.000012
    0    0   -4   12   38    0.004688    0.000039
    0    0   -4   13   38   -0.006515   -0.000007
    0    0   -4   14   38   -0.007559   -0.000008
    0    0   -4   15   38    0.006962    0.000010
    0    0   -4   16   38    0.007614   -0.000032
    0    0   -4   17   38   -0.009347    0.000022
    0    0   -4   18   38    0.009870    0.000018
    0    0   -4   19   38   -0.006776   -0.000004
    0    0   -4   20   38    0.013139   -0.000006
    0    0   -4   21   38    0.003586   -0.000029
    0    0   -4   22   38   -0.020385   -0.000014
    0    0   -4   23   38   -0.008550   -0.000015
    0    0   -4   24   38    0.014365    0.000008
    0    0   -4   25   38    0.014834    0.000011
    0    0   -4   26   38    0.026647   -0.000017
    0    0   -4   27   38   -0.015396   -0.000013
    0    0   -4   28   38    0.000303    0.000013
    0    0   -4   29   38   -0.010928    0.000016
    0    0   -4   30   38    0.002965    0.000028
    0    0   -4   31   38    0.020419   -0.000024
    0    0   -4   32   38    0.028877   -0.000013
    0    0   -4   33   38    0.004103   -0.000033
    0    0   -4   34   38   -0.013608   -0.000016
    0    0   -4   35   38    0.004815    0.000014
    0    0   -4   36   38    0.027793    0.000022
    0    0   -4   37   38   -0.038767   -0.000011
    0    0   -4   38   38   -0.062496   -0.000000
    0    0   -4   39   38   -0.049787    0.000012
    0    0   -4   40   38   -0.034460    0.000000
    0    0   -4    1   39    0.007455   -0.000005
    0    0   -4    2   39   -0.004341   -0.000040
    0    0   -4    3   39   -0.003307    0.000042
    0    0   -4    4   39    0.013067   -0.000037
    0    0   -4    5   39   -0.002563    0.000011
    0    0   -4    6   39    0.000290    0.000041
    0    0   -4    7   39   -0.005404   -0.000043
    0    0   -4    8   39    0.009463    0.000043
    0    0   -4    9   39   -0.009519    0.000000
    0    0   -4   10   39    0.008641   -0.000027
    0    0   -4   11   39    0.011272    0.000015
    0    0   -4   12   39   -0.002590   -0.000001
    0    0   -4   13   39   -0.000099    0.000000
    0    0   -4   14   39    0.004261    0.000019
    0    0   -4   15   39    0.004592   -0.000011
    0    0   -4   16   39   -0.004806    0.000006
    0    0   -4   17   39   -0.003051    0.000023
    0    0   -4   18   39    0.019855   -0.000011
    0    0   -4   19   39   -0.011448    0.000013
    0    0   -4   20   39    0.012252    0.000028
    0    0   -4   21   39    0.009552    0.000006
    0    0   -4   22   39   -0.003756    0.000013
    0    0   -4   23   39   -0.007519   -0.000028
    0    0   -4   24   39    0.005137   -0.000015
    0    0   -4   25   39   -0.006198    0.000012
    0    0   -4   26   39    0.029482    0.000002
    0    0   -4   27   39    0.018574   -0.000010
    0    0   -4   28   39    0.002880   -0.000008
    0    0   -4   29   39    0.005011    0.000024
    0    0   -4   30   39   -0.014472    0.000016
    0    0   -4   31   39    0.036199    0.000019
    0    0   -4   32   39    0.012192    0.000023
    0    0   -4   33   39   -0.004013   -0.000012
    0    0   -4   34   39    0.010709   -0.000030
    0    0   -4   35   39    0.020445   -0.000039
    0    0   -4   36   39    0.010671    0.000001
    0    0   -4   37   39   -0.034462    0.000001
    0    0   -4   38   39   -0.049787   -0.000012
    0    0   -4   39   39   -0.070124   -0.000000
    0    0   -4   40   39   -0.044248    0.000015
    0    0   -4    1   40   -0.003325   -0.000046
    0    0   -4    2   40   -0.004471    0.000045
    0    0   -4    3   40    0.007583    0.000007
    0    0   -4    4   40    0.009322   -0.000047
    0    0   -4    5   40   -0.005388    0.000048
    0    0   -4    6   40    0.000429   -0.000045
    0    0   -4    7   40   -0.002702   -0.000007
    0    0   -4    8   40    0.013194    0.000046
    0    0   -4    9   40   -0.009501   -0.000005
    0    0   -4   10   40   -0.004894   -0.000005
    0    0   -4   11   40    0.004633    0.000016
    0    0   -4   12   40    0.004247   -0.000030
    0    0   -4   13   40   -0.000104    0.000008
    0    0   -4   14   40   -0.002500    0.000001
    0    0   -4   15   40    0.011222   -0.000015
    0    0   -4   16   40    0.008647    0.000039
    0    0   -4   17   40   -0.011444   -0.000023
    0    0   -4   18   40    0.012229   -0.000031
    0    0   -4   19   40   -0.002969   -0.000018
    0    0   -4   20   40    0.019885    0.000007
    0    0   -4   21   40    0.005168    0.000013
    0    0   -4   22   40   -0.007544    0.000024
    0    0   -4   23   40   -0.003803   -0.000019
    0    0   -4   24   40    0.009473   -0.000002
    0    0   -4   25   40   -0.006158   -0.000014
    0    0   -4   26   40    0.002895    0.000013
    0    0   -4   27   40    0.018544    0.000009
    0    0   -4   28   40    0.029440   -0.000007
    0    0   -4   29   40   -0.014394   -0.000017
    0    0   -4   30   40    0.005062   -0.000026
    0    0   -4   31   40    0.010745    0.000013
    0    0   -4   32   40    0.020482    0.000024
    0    0   -4   33   40    0.010650    0.000023
    0    0   -4   34   40   -0.004083    0.000017
    0    0   -4   35   40    0.012069   -0.000029
    0    0   -4   36   40    0.036136   -0.000017
    0    0   -4   37   40   -0.049770    0.000012
[...]
    0    0    4    2   31   -0.001102   -0.000017
    0    0    4    3   31   -0.005386   -0.000029
    0    0    4    4   31    0.001901    0.000029
    0    0    4    5   31   -0.003828   -0.000043
    0    0    4    6   31    0.002094    0.000017
    0    0    4    7   31   -0.002854    0.000031
    0    0    4    8   31    0.005803   -0.000021
    0    0    4    9   31    0.002746   -0.000009
    0    0    4   10   31    0.004355    0.000031
    0    0    4   11   31    0.008834   -0.000025
    0    0    4   12   31    0.002687    0.000016
    0    0    4   13   31    0.004250    0.000009
    0    0    4   14   31    0.001631   -0.000029
    0    0    4   15   31    0.006517    0.000034
    0    0    4   16   31    0.002382   -0.000011
    0    0    4   17   31   -0.002045   -0.000014
    0    0    4   18   31    0.011395    0.000014
    0    0    4   19   31   -0.004692    0.000043
    0    0    4   20   31    0.009384    0.000001
    0    0    4   21   31    0.009367    0.000014
    0    0    4   22   31    0.001965    0.000010
    0    0    4   23   31   -0.001670   -0.000044
    0    0    4   24   31    0.005332   -0.000007
    0    0    4   25   31   -0.017113    0.000031
    0    0    4   26   31   -0.045112    0.000000
    0    0    4   27   31   -0.012904    0.000010
    0    0    4   28   31   -0.024791    0.000024
    0    0    4   29   31    0.017352   -0.000022
    0    0    4   30   31    0.009416    0.000020
    0    0    4   31   31    0.025218   -0.000000
    0    0    4   32   31    0.019763    0.000030
    0    0    4   33   31    0.011182   -0.000032
    0    0    4   34   31    0.009707    0.000014
    0    0    4   35   31    0.013326   -0.000007
    0    0    4   36   31    0.011980   -0.000010
    0    0    4   37   31    0.027767    0.000024
    0    0    4   38   31    0.020419    0.000024
    0    0    4   39   31    0.036199   -0.000019
    0    0    4   40   31    0.010745   -0.000013
    0    0    4    1   32   -0.001734   -0.000031
    0    0    4    2   32   -0.000202   -0.000015
    0    0    4    3   32   -0.002529    0.000039
    0    0    4    4   32    0.000677   -0.000023
    0    0    4    5   32   -0.006010    0.000033
    0    0    4    6   32    0.000637    0.000020
    0    0    4    7   32   -0.005274   -0.000040
    0    0    4    8   32    0.004740    0.000012
    0    0    4    9   32    0.002845   -0.000009
    0    0    4   10   32    0.003649   -0.000012
    0    0    4   11   32    0.008095    0.000024
    0    0    4   12   32    0.004631   -0.000023
    0    0    4   13   32    0.004163    0.000014
    0    0    4   14   32    0.002836    0.000010
    0    0    4   15   32    0.005670   -0.000037
    0    0    4   16   32    0.002719    0.000023
    0    0    4   17   32   -0.002453    0.000050
    0    0    4   18   32    0.005319   -0.000004
    0    0    4   19   32    0.000860   -0.000010
    0    0    4   20   32    0.009363   -0.000014
    0    0    4   21   32    0.003596   -0.000002
    0    0    4   22   32   -0.003795   -0.000045
    0    0    4   23   32   -0.000856    0.000017
    0    0    4   24   32    0.006074   -0.000009
    0    0    4   25   32   -0.010542    0.000007
    0    0    4   26   32   -0.030545   -0.000003
    0    0    4   27   32   -0.014259   -0.000021
    0    0    4   28   32   -0.010894   -0.000014
    0    0    4   29   32    0.011973    0.000026
    0    0    4   30   32    0.010870   -0.000002
    0    0    4   31   32    0.019763   -0.000030
    0    0    4   32   32    0.023150   -0.000000
    0    0    4   33   32    0.019499    0.000014
    0    0    4   34   32    0.010837   -0.000017
    0    0    4   35   32    0.009466    0.000012
    0    0    4   36   32    0.013374   -0.000007
    0    0    4   37   32    0.004735    0.000001
    0    0    4   38   32    0.028877    0.000013
    0    0    4   39   32    0.012192   -0.000023
    0    0    4   40   32    0.020482   -0.000024
    0    0    4    1   33    0.001043    0.000026
    0    0    4    2   33    0.001622   -0.000024
    0    0    4    3   33   -0.001245    0.000039
    0    0    4    4   33    0.000848   -0.000023
    0    0    4    5   33   -0.003359   -0.000022
    0    0    4    6   33   -0.001615    0.000022
    0    0    4    7   33   -0.001205   -0.000040
    0    0    4    8   33    0.002141    0.000029
    0    0    4    9   33    0.003354    0.000023
    0    0    4   10   33    0.005770   -0.000014
    0    0    4   11   33    0.005576   -0.000005
    0    0    4   12   33    0.008065    0.000022
    0    0    4   13   33    0.006367   -0.000021
    0    0    4   14   33    0.007028    0.000020
    0    0    4   15   33    0.005472    0.000013
    0    0    4   16   33    0.005513   -0.000021
    0    0    4   17   33   -0.003970   -0.000003
    0    0    4   18   33   -0.001651   -0.000044
    0    0    4   19   33    0.000127   -0.000016
    0    0    4   20   33    0.001967   -0.000002
    0    0    4   21   33   -0.003789    0.000042
    0    0    4   22   33   -0.008574   -0.000001
    0    0    4   23   33   -0.006236   -0.000013
    0    0    4   24   33   -0.000985    0.000010
    0    0    4   25   33    0.021238    0.000023
    0    0    4   26   33    0.000337    0.000016
    0    0    4   27   33    0.011360    0.000021
    0    0    4   28   33    0.011189    0.000010
    0    0    4   29   33    0.002416   -0.000025
    0    0    4   30   33    0.004170    0.000001
    0    0    4   31   33    0.011182    0.000032
    0    0    4   32   33    0.019499   -0.000014
    0    0    4   33   33    0.013754   -0.000000
    0    0    4   34   33    0.008232   -0.000002
    0    0    4   35   33    0.010892   -0.000017
    0    0    4   36   33    0.009620    0.000010
    0    0    4   37   33   -0.013695   -0.000016
    0    0    4   38   33    0.004103    0.000033
    0    0    4   39   33   -0.004013    0.000012
    0    0    4   40   33    0.010650   -0.000023
    0    0    4    1   34   -0.001164   -0.000044
    0    0    4    2   34    0.001540    0.000030
    0    0    4    3   34    0.001168   -0.000025
    0    0    4    4   34    0.002078   -0.000027
    0    0    4    5   34   -0.001287    0.000044
    0    0    4    6   34   -0.001533   -0.000028
    0    0    4    7   34   -0.003484    0.000022
    0    0    4    8   34    0.000924    0.000021
    0    0    4    9   34    0.003426   -0.000026
    0    0    4   10   34    0.005459    0.000025
    0    0    4   11   34    0.005453   -0.000007
    0    0    4   12   34    0.007108   -0.000023
    0    0    4   13   34    0.006293    0.000025
    0    0    4   14   34    0.008116   -0.000027
    0    0    4   15   34    0.005607    0.000001
    0    0    4   16   34    0.005687    0.000018
    0    0    4   17   34    0.000121    0.000018
    0    0    4   18   34    0.001847    0.000006
    0    0    4   19   34   -0.003970   -0.000001
    0    0    4   20   34   -0.001672    0.000042
    0    0    4   21   34   -0.000857   -0.000013
    0    0    4   22   34   -0.006240    0.000015
    0    0    4   23   34   -0.008570    0.000003
    0    0    4   24   34   -0.003760   -0.000043
    0    0    4   25   34    0.021225   -0.000025
    0    0    4   26   34    0.011231   -0.000007
    0    0    4   27   34    0.011361   -0.000026
    0    0    4   28   34    0.000277   -0.000017
    0    0    4   29   34    0.004127   -0.000001
    0    0    4   30   34    0.002417    0.000025
    0    0    4   31   34    0.009707   -0.000014
    0    0    4   32   34    0.010837    0.000017
    0    0    4   33   34    0.008232    0.000002
    0    0    4   34   34    0.013792   -0.000000
    0    0    4   35   34    0.019434    0.000019
    0    0    4   36   34    0.011247   -0.000031
    0    0    4   37   34    0.004073   -0.000028
    0    0    4   38   34   -0.013608    0.000016
    0    0    4   39   34    0.010709    0.000030
    0    0    4   40   34   -0.004083   -0.000017
    0    0    4    1   35   -0.002618   -0.000043
    0    0    4    2   35   -0.000247    0.000013
    0    0    4    3   35   -0.001601    0.000032
    0    0    4    4   35    0.004673   -0.000017
    0    0    4    5   35   -0.005177    0.000044
    0    0    4    6   35    0.000700   -0.000017
    0    0    4    7   35   -0.006130   -0.000033
    0    0    4    8   35    0.000738    0.000028
    0    0    4    9   35    0.002823    0.000005
    0    0    4   10   35    0.002678   -0.000029
    0    0    4   11   35    0.005759    0.000040
    0    0    4   12   35    0.002750   -0.000012
    0    0    4   13   35    0.004200   -0.000010
    0    0    4   14   35    0.004676    0.000028
    0    0    4   15   35    0.007992   -0.000027
    0    0    4   16   35    0.003736    0.000014
    0    0    4   17   35    0.001008    0.000013
    0    0    4   18   35    0.009341    0.000013
    0    0    4   19   35   -0.002476   -0.000052
    0    0    4   20   35    0.005336    0.000003
    0    0    4   21   35    0.006074    0.000012
    0    0    4   22   35   -0.000985   -0.000019
    0    0    4   23   35   -0.003755    0.000043
    0    0    4   24   35    0.003567    0.000002
    0    0    4   25   35   -0.010494    0.000003
    0    0    4   26   35   -0.010936    0.000008
    0    0    4   27   35   -0.014291    0.000017
    0    0    4   28   35   -0.030499    0.000004
    0    0    4   29   35    0.010952    0.000007
    0    0    4   30   35    0.011941   -0.000028
    0    0    4   31   35    0.013326    0.000007
    0    0    4   32   35    0.009466   -0.000012
    0    0    4   33   35    0.010892    0.000017
    0    0    4   34   35    0.019434   -0.000019
    0    0    4   35   35    0.023181   -0.000000
    0    0    4   36   35    0.019737    0.000030
    0    0    4   37   35    0.028892   -0.000017
    0    0    4   38   35    0.004815   -0.000014
    0    0    4   39   35    0.020445    0.000039
    0    0    4   40   35    0.012069    0.000029
    0    0    4    1   36   -0.005256    0.000031
    0    0    4    2   36   -0.001154    0.000018
    0    0    4    3   36   -0.004683   -0.000041
    0    0    4    4   36    0.005873    0.000015
    0    0    4    5   36   -0.002981   -0.000032
    0    0    4    6   36    0.002157   -0.000019
    0    0    4    7   36   -0.003728    0.000038
    0    0    4    8   36    0.001823   -0.000024
    0    0    4    9   36    0.002718    0.000013
    0    0    4   10   36    0.002468    0.000008
    0    0    4   11   36    0.006432   -0.000033
    0    0    4   12   36    0.001672    0.000024
    0    0    4   13   36    0.004288   -0.000014
    0    0    4   14   36    0.002609   -0.000011
    0    0    4   15   36    0.008911    0.000023
    0    0    4   16   36    0.004317   -0.000027
    0    0    4   17   36   -0.004704   -0.000048
    0    0    4   18   36    0.009360   -0.000004
    0    0    4   19   36   -0.001912    0.000011
    0    0    4   20   36    0.011400   -0.000011
    0    0    4   21   36    0.005323    0.000007
    0    0    4   22   36   -0.001645    0.000042
    0    0    4   23   36    0.001853   -0.000007
    0    0    4   24   36    0.009332   -0.000015
    0    0    4   25   36   -0.017077   -0.000020
    0    0    4   26   36   -0.024791   -0.000025
    0    0    4   27   36   -0.012926   -0.000003
    0    0    4   28   36   -0.045019    0.000007
    0    0    4   29   36    0.009364   -0.000022
    0    0    4   30   36    0.017446    0.000016
    0    0    4   31   36    0.011980    0.000010
    0    0    4   32   36    0.013374    0.000007
    0    0    4   33   36    0.009620   -0.000010
    0    0    4   34   36    0.011247    0.000031
    0    0    4   35   36    0.019737   -0.000030
    0    0    4   36   36    0.025140   -0.000000
    0    0    4   37   36    0.020478   -0.000031
    0    0    4   38   36    0.027793   -0.000022
    0    0    4   39   36    0.010671   -0.000001
    0    0    4   40   36    0.036136    0.000017
    0    0    4    1   37   -0.002344    0.000010
    0    0    4    2   37   -0.003767    0.000037
    0    0    4    3   37   -0.004227   -0.000044
    0    0    4    4   37    0.011391    0.000049
    0    0    4    5   37    0.004815   -0.000006
    0    0    4    6   37   -0.004285   -0.000043
    0    0    4    7   37   -0.006156    0.000039
    0    0    4    8   37    0.013908   -0.000043
    0    0    4    9   37   -0.004582   -0.000007
    0    0    4   10   37    0.007642    0.000026
    0    0    4   11   37    0.006949   -0.000007
    0    0    4   12   37   -0.007464    0.000005
    0    0    4   13   37   -0.006519   -0.000001
    0    0    4   14   37    0.004681   -0.000031
    0    0    4   15   37    0.013048    0.000008
    0    0    4   16   37    0.001398   -0.000001
    0    0    4   17   37   -0.006721    0.000012
    0    0    4   18   37    0.013213    0.000014
    0    0    4   19   37   -0.009297   -0.000028
    0    0    4   20   37    0.009824   -0.000017
    0    0    4   21   37    0.014307   -0.000007
    0    0    4   22   37   -0.008616    0.000023
    0    0    4   23   37   -0.020388    0.000011
    0    0    4   24   37    0.003600    0.000031
    0    0    4   25   37    0.014870   -0.000007
    0    0    4   26   37    0.000237   -0.000006
    0    0    4   27   37   -0.015432    0.000012
    0    0    4   28   37    0.026667    0.000016
    0    0    4   29   37    0.003027   -0.000033
    0    0    4   30   37   -0.010834   -0.000012
    0    0    4   31   37    0.027767   -0.000024
    0    0    4   32   37    0.004735   -0.000001
    0    0    4   33   37   -0.013695    0.000016
    0    0    4   34   37    0.004073    0.000028
    0    0    4   35   37    0.028892    0.000017
    0    0    4   36   37    0.020478    0.000031
    0    0    4   37   37   -0.062492    0.000000
    0    0    4   38   37   -0.038767    0.000011
    0    0    4   39   37   -0.034462   -0.000001
    0    0    4   40   37   -0.049770   -0.000012
    0    0    4    1   38   -0.004209    0.000048
    0    0    4    2   38   -0.003646   -0.000045
    0    0    4    3   38   -0.002482   -0.000007
    0    0    4    4   38    0.014064    0.000048
    0    0    4    5   38   -0.006165   -0.000045
    0    0    4    6   38   -0.004425    0.000045
    0    0    4    7   38    0.004949    0.000005
    0    0    4    8   38    0.011238   -0.000053
    0    0    4    9   38   -0.004605    0.000008
    0    0    4   10   38    0.001492    0.000003
    0    0    4   11   38    0.013038   -0.000012
    0    0    4   12   38    0.004688    0.000039
    0    0    4   13   38   -0.006515   -0.000007
    0    0    4   14   38   -0.007559   -0.000008
    0    0    4   15   38    0.006962    0.000010
    0    0    4   16   38    0.007614   -0.000032
    0    0    4   17   38   -0.009347    0.000022
    0    0    4   18   38    0.009870    0.000018
    0    0    4   19   38   -0.006776   -0.000004
    0    0    4   20   38    0.013139   -0.000006
    0    0    4   21   38    0.003586   -0.000029
    0    0    4   22   38   -0.020385   -0.000014
    0    0    4   23   38   -0.008550   -0.000015
    0    0    4   24   38    0.014365    0.000008
    0    0    4   25   38    0.014834    0.000011
    0    0    4   26   38    0.026647   -0.000017
    0    0    4   27   38   -0.015396   -0.000013
    0    0    4   28   38    0.000303    0.000013
    0    0    4   29   38   -0.010928    0.000016
    0    0    4   30   38    0.002965    0.000028
    0    0    4   31   38    0.020419   -0.000024
    0    0    4   32   38    0.028877   -0.000013
    0    0    4   33   38    0.004103   -0.000033
    0    0    4   34   38   -0.013608   -0.000016
    0    0    4   35   38    0.004815    0.000014
    0    0    4   36   38    0.027793    0.000022
    0    0    4   37   38   -0.038767   -0.000011
    0    0    4   38   38   -0.062496    0.000000
    0    0    4   39   38   -0.049787    0.000012
    0    0    4   40   38   -0.034460    0.000000
    0    0    4    1   39    0.007455   -0.000005
    0    0    4    2   39   -0.004341   -0.000040
    0    0    4    3   39   -0.003307    0.000042
    0    0    4    4   39    0.013067   -0.000037
    0    0    4    5   39   -0.002563    0.000011
    0    0    4    6   39    0.000290    0.000041
    0    0    4    7   39   -0.005404   -0.000043
    0    0    4    8   39    0.009463    0.000043
    0    0    4    9   39   -0.009519    0.000000
    0    0    4   10   39    0.008641   -0.000027
    0    0    4   11   39    0.011272    0.000015
    0    0    4   12   39   -0.002590   -0.000001
    0    0    4   13   39   -0.000099    0.000000
    0    0    4   14   39    0.004261    0.000019
    0    0    4   15   39    0.004592   -0.000011
    0    0    4   16   39   -0.004806    0.000006
    0    0    4   17   39   -0.003051    0.000023
    0    0    4   18   39    0.019855   -0.000011
    0    0    4   19   39   -0.011448    0.000013
    0    0    4   20   39    0.012252    0.000028
    0    0    4   21   39    0.009552    0.000006
    0    0    4   22   39   -0.003756    0.000013
    0    0    4   23   39   -0.007519   -0.000028
    0    0    4   24   39    0.005137   -0.000015
    0    0    4   25   39   -0.006198    0.000012
    0    0    4   26   39    0.029482    0.000002
    0    0    4   27   39    0.018574   -0.000010
    0    0    4   28   39    0.002880   -0.000008
    0    0    4   29   39    0.005011    0.000024
    0    0    4   30   39   -0.014472    0.000016
    0    0    4   31   39    0.036199    0.000019
    0    0    4   32   39    0.012192    0.000023
    0    0    4   33   39   -0.004013   -0.000012
    0    0    4   34   39    0.010709   -0.000030
    0    0    4   35   39    0.020445   -0.000039
    0    0    4   36   39    0.010671    0.000001
    0    0    4   37   39   -0.034462    0.000001
    0    0    4   38   39   -0.049787   -0.000012
    0    0    4   39   39   -0.070124    0.000000
    0    0    4   40   39   -0.044248    0.000015
    0    0    4    1   40   -0.003325   -0.000046
    0    0    4    2   40   -0.004471    0.000045
    0    0    4    3   40    0.007583    0.000007
    0    0    4    4   40    0.009322   -0.000047
    0    0    4    5   40   -0.005388    0.000048
    0    0    4    6   40    0.000429   -0.000045
    0    0    4    7   40   -0.002702   -0.000007
    0    0    4    8   40    0.013194    0.000046
    0    0    4    9   40   -0.009501   -0.000005
    0    0    4   10   40   -0.004894   -0.000005
    0    0    4   11   40    0.004633    0.000016
    0    0    4   12   40    0.004247   -0.000030
    0    0    4   13   40   -0.000104    0.000008
    0    0    4   14   40   -0.002500    0.000001
    0    0    4   15   40    0.011222   -0.000015
    0    0    4   16   40    0.008647    0.000039
    0    0    4   17   40   -0.011444   -0.000023
    0    0    4   18   40    0.012229   -0.000031
    0    0    4   19   40   -0.002969   -0.000018
    0    0    4   20   40    0.019885    0.000007
    0    0    4   21   40    0.005168    0.000013
    0    0    4   22   40   -0.007544    0.000024
    0    0    4   23   40   -0.003803   -0.000019
    0    0    4   24   40    0.009473   -0.000002
    0    0    4   25   40   -0.006158   -0.000014
    0    0    4   26   40    0.002895    0.000013
    0    0    4   27   40    0.018544    0.000009
    0    0    4   28   40    0.029440   -0.000007
    0    0    4   29   40   -0.014394   -0.000017
    0    0    4   30   40    0.005062   -0.000026
    0    0    4   31   40    0.010745    0.000013
    0    0    4   32   40    0.020482    0.000024
    0    0    4   33   40    0.010650    0.000023
    0    0    4   34   40   -0.004083    0.000017
    0    0    4   35   40    0.012069   -0.000029
    0    0    4   36   40    0.036136   -0.000017
    0    0    4   37   40   -0.049770    0.000012
    0    0    4   38   40   -0.034460   -0.000000
    0    0    4   39   40   -0.044248   -0.000015
    0    0    4   40   40   -0.070110    0.000000
