 written on 13Sep2022 at 16:17:55 
          50
          15
    2    1    1    1    1    1    1    1    1    1    1    1    1    1    2
    0    0   -7    1    1   -0.000434   -0.000000
    0    0   -7    2    1   -0.000302   -0.000000
    0    0   -7    3    1    0.001263   -0.000000
    0    0   -7    4    1    0.000676   -0.000000
    0    0   -7    5    1   -0.000381   -0.000000
    0    0   -7    6    1    0.000716   -0.000000
    0    0   -7    7    1    0.002476    0.000000
    0    0   -7    8    1   -0.002152   -0.000000
    0    0   -7    9    1    0.001110    0.000000
    0    0   -7   10    1    0.000706   -0.000000
    0    0   -7   11    1    0.000913   -0.000000
    0    0   -7   12    1    0.000754   -0.000000
    0    0   -7   13    1    0.000061   -0.000000
    0    0   -7   14    1    0.000235    0.000000
    0    0   -7   15    1    0.000968    0.000000
    0    0   -7   16    1    0.000633    0.000000
    0    0   -7   17    1   -0.000610   -0.000000
    0    0   -7   18    1    0.002695    0.000000
    0    0   -7   19    1   -0.001171   -0.000000
    0    0   -7   20    1   -0.000394   -0.000000
    0    0   -7   21    1   -0.001150    0.000000
    0    0   -7   22    1    0.003423   -0.000000
    0    0   -7   23    1    0.001310    0.000000
    0    0   -7   24    1    0.001005    0.000000
    0    0   -7   25    1   -0.001609    0.000000
    0    0   -7   26    1    0.001220   -0.000000
    0    0   -7   27    1   -0.000260    0.000000
    0    0   -7   28    1   -0.000465    0.000000
    0    0   -7   29    1    0.000743    0.000000
    0    0   -7   30    1    0.001236    0.000000
    0    0   -7   31    1    0.000801    0.000000
    0    0   -7   32    1    0.001327    0.000000
    0    0   -7   33    1    0.000680    0.000000
    0    0   -7   34    1    0.000176    0.000000
    0    0   -7   35    1    0.000752   -0.000000
    0    0   -7   36    1    0.002732   -0.000000
    0    0   -7   37    1    0.001352    0.000000
    0    0   -7   38    1    0.001026    0.000000
    0    0   -7   39    1    0.000627    0.000000
    0    0   -7   40    1   -0.003374    0.000000
    0    0   -7   41    1    0.001118   -0.000000
    0    0   -7   42    1   -0.001155    0.000000
    0    0   -7   43    1   -0.001676    0.000000
    0    0   -7   44    1    0.000599    0.000000
    0    0   -7   45    1    0.000793    0.000000
    0    0   -7   46    1    0.000578    0.000000
    0    0   -7   47    1    0.000585    0.000000
    0    0   -7   48    1    0.000879    0.000000
    0    0   -7   49    1    0.000405    0.000000
    0    0   -7   50    1    0.001089   -0.000000
    0    0   -7    1    2   -0.000302    0.000000
    0    0   -7    2    2    0.000263   -0.000000
    0    0   -7    3    2    0.000978    0.000000
    0    0   -7    4    2   -0.000035   -0.000000
    0    0   -7    5    2   -0.000601   -0.000000
    0    0   -7    6    2    0.001216   -0.000000
    0    0   -7    7    2    0.003178    0.000000
    0    0   -7    8    2   -0.003930   -0.000000
    0    0   -7    9    2    0.001369    0.000000
    0    0   -7   10    2    0.001513    0.000000
    0    0   -7   11    2    0.001101    0.000000
    0    0   -7   12    2    0.000760    0.000000
    0    0   -7   13    2    0.000181    0.000000
    0    0   -7   14    2    0.000304    0.000000
    0    0   -7   15    2    0.001117    0.000000
    0    0   -7   16    2    0.000851    0.000000
    0    0   -7   17    2   -0.001736   -0.000000
    0    0   -7   18    2    0.003609    0.000000
    0    0   -7   19    2   -0.001077   -0.000000
    0    0   -7   20    2   -0.000334   -0.000000
    0    0   -7   21    2   -0.000671    0.000000
    0    0   -7   22    2    0.001013   -0.000000
    0    0   -7   23    2   -0.000123   -0.000000
    0    0   -7   24    2   -0.000168   -0.000000
    0    0   -7   25    2   -0.000446    0.000000
    0    0   -7   26    2    0.001061   -0.000000
    0    0   -7   27    2   -0.000963   -0.000000
    0    0   -7   28    2   -0.001917    0.000000
    0    0   -7   29    2   -0.001088   -0.000000
    0    0   -7   30    2   -0.000737   -0.000000
    0    0   -7   31    2   -0.000212   -0.000000
    0    0   -7   32    2    0.000048   -0.000000
    0    0   -7   33    2   -0.000020   -0.000000
    0    0   -7   34    2    0.000274   -0.000000
    0    0   -7   35    2    0.001657   -0.000000
    0    0   -7   36    2    0.000466   -0.000000
    0    0   -7   37    2   -0.000338   -0.000000
    0    0   -7   38    2    0.000092   -0.000000
    0    0   -7   39    2   -0.000517   -0.000000
    0    0   -7   40    2   -0.002292    0.000000
    0    0   -7   41    2   -0.000973   -0.000000
    0    0   -7   42    2   -0.001840    0.000000
    0    0   -7   43    2   -0.001838    0.000000
    0    0   -7   44    2   -0.001253   -0.000000
    0    0   -7   45    2   -0.000750   -0.000000
    0    0   -7   46    2   -0.000368   -0.000000
    0    0   -7   47    2   -0.000180   -0.000000
    0    0   -7   48    2   -0.000775   -0.000000
    0    0   -7   49    2   -0.000661   -0.000000
    0    0   -7   50    2    0.000013   -0.000000
    0    0   -7    1    3    0.001263    0.000000
    0    0   -7    2    3    0.000978   -0.000000
    0    0   -7    3    3    0.001214   -0.000000
    0    0   -7    4    3    0.000294   -0.000000
    0    0   -7    5    3    0.000357   -0.000000
    0    0   -7    6    3    0.001911   -0.000000
    0    0   -7    7    3    0.005420    0.000000
    0    0   -7    8    3   -0.003935   -0.000000
    0    0   -7    9    3    0.001736    0.000000
    0    0   -7   10    3    0.002054    0.000000
    0    0   -7   11    3    0.001003    0.000000
    0    0   -7   12    3    0.000993   -0.000000
    0    0   -7   13    3    0.000726    0.000000
    0    0   -7   14    3    0.000515    0.000000
    0    0   -7   15    3    0.001306    0.000000
    0    0   -7   16    3    0.001750    0.000000
    0    0   -7   17    3   -0.002216   -0.000000
    0    0   -7   18    3    0.004435    0.000000
    0    0   -7   19    3   -0.000838   -0.000000
    0    0   -7   20    3    0.000070   -0.000000
    0    0   -7   21    3   -0.005327    0.000000
    0    0   -7   22    3   -0.001057   -0.000000
    0    0   -7   23    3   -0.001665   -0.000000
    0    0   -7   24    3   -0.001007   -0.000000
    0    0   -7   25    3   -0.002867    0.000000
    0    0   -7   26    3   -0.002965   -0.000000
    0    0   -7   27    3   -0.003999   -0.000000
    0    0   -7   28    3   -0.003753    0.000000
    0    0   -7   29    3   -0.002699    0.000000
    0    0   -7   30    3   -0.001861   -0.000000
    0    0   -7   31    3   -0.001137   -0.000000
    0    0   -7   32    3   -0.000610   -0.000000
    0    0   -7   33    3   -0.001018   -0.000000
    0    0   -7   34    3   -0.000834   -0.000000
    0    0   -7   35    3   -0.001433   -0.000000
    0    0   -7   36    3   -0.000487   -0.000000
    0    0   -7   37    3   -0.000884   -0.000000
    0    0   -7   38    3   -0.000252   -0.000000
    0    0   -7   39    3   -0.000772   -0.000000
    0    0   -7   40    3   -0.003987    0.000000
    0    0   -7   41    3    0.000154   -0.000000
    0    0   -7   42    3   -0.001117    0.000000
    0    0   -7   43    3   -0.000846    0.000000
    0    0   -7   44    3   -0.000313   -0.000000
    0    0   -7   45    3   -0.000294   -0.000000
    0    0   -7   46    3    0.000166    0.000000
    0    0   -7   47    3    0.000102   -0.000000
    0    0   -7   48    3   -0.000140   -0.000000
    0    0   -7   49    3   -0.000369   -0.000000
    0    0   -7   50    3    0.000724   -0.000000
    0    0   -7    1    4    0.000676    0.000000
    0    0   -7    2    4   -0.000035    0.000000
    0    0   -7    3    4    0.000294    0.000000
    0    0   -7    4    4    0.000722   -0.000000
    0    0   -7    5    4   -0.000194   -0.000000
    0    0   -7    6    4    0.000670   -0.000000
    0    0   -7    7    4    0.004130    0.000000
    0    0   -7    8    4   -0.003780   -0.000000
    0    0   -7    9    4    0.000578    0.000000
    0    0   -7   10    4    0.001278    0.000000
    0    0   -7   11    4    0.000413    0.000000
    0    0   -7   12    4    0.000640    0.000000
    0    0   -7   13    4    0.000683    0.000000
    0    0   -7   14    4    0.000585    0.000000
    0    0   -7   15    4    0.001064    0.000000
    0    0   -7   16    4    0.000734    0.000000
    0    0   -7   17    4   -0.002236   -0.000000
    0    0   -7   18    4    0.003982    0.000000
    0    0   -7   19    4   -0.000625   -0.000000
    0    0   -7   20    4   -0.000488   -0.000000
    0    0   -7   21    4   -0.001222   -0.000000
    0    0   -7   22    4    0.001393   -0.000000
    0    0   -7   23    4   -0.000092   -0.000000
    0    0   -7   24    4   -0.000999   -0.000000
    0    0   -7   25    4   -0.002187    0.000000
    0    0   -7   26    4   -0.000567   -0.000000
    0    0   -7   27    4   -0.000384   -0.000000
    0    0   -7   28    4   -0.000648    0.000000
    0    0   -7   29    4   -0.000903   -0.000000
    0    0   -7   30    4   -0.000569   -0.000000
    0    0   -7   31    4   -0.000550   -0.000000
    0    0   -7   32    4   -0.001110   -0.000000
    0    0   -7   33    4   -0.000895   -0.000000
    0    0   -7   34    4   -0.000751   -0.000000
    0    0   -7   35    4   -0.000712   -0.000000
    0    0   -7   36    4    0.000417   -0.000000
    0    0   -7   37    4    0.000050   -0.000000
    0    0   -7   38    4   -0.000888   -0.000000
    0    0   -7   39    4   -0.001065   -0.000000
    0    0   -7   40    4   -0.002863    0.000000
    0    0   -7   41    4   -0.000319   -0.000000
    0    0   -7   42    4   -0.001497   -0.000000
    0    0   -7   43    4   -0.002207    0.000000
    0    0   -7   44    4   -0.001182   -0.000000
    0    0   -7   45    4   -0.000813   -0.000000
    0    0   -7   46    4   -0.001031   -0.000000
    0    0   -7   47    4   -0.000903   -0.000000
    0    0   -7   48    4   -0.000680   -0.000000
    0    0   -7   49    4   -0.000431   -0.000000
    0    0   -7   50    4   -0.000340   -0.000000
    0    0   -7    1    5   -0.000381    0.000000
    0    0   -7    2    5   -0.000601    0.000000
    0    0   -7    3    5    0.000357    0.000000
    0    0   -7    4    5   -0.000194    0.000000
    0    0   -7    5    5   -0.001314   -0.000000
    0    0   -7    6    5    0.000016   -0.000000
    0    0   -7    7    5    0.002296    0.000000
    0    0   -7    8    5   -0.004049   -0.000000
    0    0   -7    9    5    0.000150    0.000000
    0    0   -7   10    5    0.000952    0.000000
    0    0   -7   11    5    0.000356    0.000000
    0    0   -7   12    5    0.000085    0.000000
    0    0   -7   13    5   -0.000260    0.000000
    0    0   -7   14    5    0.000208    0.000000
    0    0   -7   15    5    0.000615    0.000000
    0    0   -7   16    5   -0.000665    0.000000
    0    0   -7   17    5   -0.002523   -0.000000
    0    0   -7   18    5    0.002941    0.000000
    0    0   -7   19    5   -0.001058   -0.000000
    0    0   -7   20    5   -0.001200   -0.000000
    0    0   -7   21    5    0.002021   -0.000000
    0    0   -7   22    5    0.002392   -0.000000
    0    0   -7   23    5    0.001641   -0.000000
    0    0   -7   24    5    0.000429   -0.000000
    0    0   -7   25    5    0.000068   -0.000000
    0    0   -7   26    5    0.002539   -0.000000
    0    0   -7   27    5    0.001941   -0.000000
    0    0   -7   28    5    0.000441   -0.000000
    0    0   -7   29    5    0.000360   -0.000000
    0    0   -7   30    5    0.001172   -0.000000
    0    0   -7   31    5    0.000828   -0.000000
    0    0   -7   32    5    0.000308   -0.000000
    0    0   -7   33    5    0.000598   -0.000000
    0    0   -7   34    5    0.001318   -0.000000
    0    0   -7   35    5    0.001786   -0.000000
    0    0   -7   36    5    0.002273   -0.000000
    0    0   -7   37    5    0.001544   -0.000000
    0    0   -7   38    5    0.000492   -0.000000
    0    0   -7   39    5    0.000392   -0.000000
    0    0   -7   40    5   -0.000273    0.000000
    0    0   -7   41    5    0.001044   -0.000000
    0    0   -7   42    5    0.000650   -0.000000
    0    0   -7   43    5   -0.000212   -0.000000
    0    0   -7   44    5   -0.000427   -0.000000
    0    0   -7   45    5    0.000307   -0.000000
    0    0   -7   46    5    0.000400   -0.000000
    0    0   -7   47    5   -0.000199   -0.000000
    0    0   -7   48    5    0.000554   -0.000000
    0    0   -7   49    5    0.000852   -0.000000
    0    0   -7   50    5    0.001266   -0.000000
    0    0   -7    1    6    0.000716    0.000000
    0    0   -7    2    6    0.001216    0.000000
    0    0   -7    3    6    0.001911    0.000000
    0    0   -7    4    6    0.000670    0.000000
    0    0   -7    5    6    0.000016    0.000000
    0    0   -7    6    6    0.002200   -0.000000
    0    0   -7    7    6    0.003580    0.000000
    0    0   -7    8    6   -0.001670   -0.000000
    0    0   -7    9    6    0.001878    0.000000
    0    0   -7   10    6    0.001418    0.000000
    0    0   -7   11    6    0.001909    0.000000
    0    0   -7   12    6    0.001390    0.000000
    0    0   -7   13    6    0.000572    0.000000
    0    0   -7   14    6    0.000565    0.000000
    0    0   -7   15    6    0.001740    0.000000
    0    0   -7   16    6    0.001740    0.000000
    0    0   -7   17    6   -0.000007   -0.000000
    0    0   -7   18    6    0.003110    0.000000
    0    0   -7   19    6   -0.000563   -0.000000
    0    0   -7   20    6    0.000696   -0.000000
    0    0   -7   21    6   -0.004297   -0.000000
    0    0   -7   22    6   -0.002120   -0.000000
    0    0   -7   23    6   -0.003269   -0.000000
    0    0   -7   24    6   -0.002352   -0.000000
    0    0   -7   25    6   -0.004016   -0.000000
    0    0   -7   26    6   -0.002545   -0.000000
    0    0   -7   27    6   -0.003967   -0.000000
    0    0   -7   28    6   -0.004544   -0.000000
    0    0   -7   29    6   -0.003675   -0.000000
    0    0   -7   30    6   -0.003351   -0.000000
    0    0   -7   31    6   -0.003380   -0.000000
    0    0   -7   32    6   -0.002338   -0.000000
    0    0   -7   33    6   -0.002299   -0.000000
    0    0   -7   34    6   -0.002614   -0.000000
    0    0   -7   35    6   -0.002242   -0.000000
    0    0   -7   36    6   -0.002276   -0.000000
    0    0   -7   37    6   -0.002742   -0.000000
    0    0   -7   38    6   -0.002334   -0.000000
    0    0   -7   39    6   -0.002717   -0.000000
    0    0   -7   40    6   -0.004564    0.000000
    0    0   -7   41    6   -0.001896   -0.000000
    0    0   -7   42    6   -0.003756   -0.000000
    0    0   -7   43    6   -0.003900   -0.000000
    0    0   -7   44    6   -0.002879   -0.000000
    0    0   -7   45    6   -0.002825   -0.000000
    0    0   -7   46    6   -0.002378   -0.000000
    0    0   -7   47    6   -0.001993   -0.000000
    0    0   -7   48    6   -0.002710   -0.000000
    0    0   -7   49    6   -0.002427   -0.000000
    0    0   -7   50    6   -0.001444   -0.000000
    0    0   -7    1    7    0.002476   -0.000000
    0    0   -7    2    7    0.003178   -0.000000
    0    0   -7    3    7    0.005420   -0.000000
    0    0   -7    4    7    0.004130   -0.000000
    0    0   -7    5    7    0.002296   -0.000000
    0    0   -7    6    7    0.003580   -0.000000
    0    0   -7    7    7    0.069413   -0.000000
    0    0   -7    8    7   -0.064619   -0.000000
    0    0   -7    9    7    0.025267   -0.000000
    0    0   -7   10    7    0.004415   -0.000000
    0    0   -7   11    7    0.006392   -0.000000
    0    0   -7   12    7    0.004103   -0.000000
    0    0   -7   13    7    0.005104   -0.000000
    0    0   -7   14    7    0.003362   -0.000000
    0    0   -7   15    7    0.010029   -0.000000
    0    0   -7   16    7    0.026951   -0.000000
    0    0   -7   17    7   -0.038348   -0.000000
    0    0   -7   18    7    0.066883    0.000000
    0    0   -7   19    7   -0.033356   -0.000000
    0    0   -7   20    7    0.000559   -0.000000
    0    0   -7   21    7   -0.017729    0.000000
    0    0   -7   22    7   -0.000021    0.000000
    0    0   -7   23    7    0.005433    0.000000
    0    0   -7   24    7    0.008441    0.000000
    0    0   -7   25    7   -0.000257    0.000000
    0    0   -7   26    7   -0.010817    0.000000
    0    0   -7   27    7   -0.014686    0.000000
    0    0   -7   28    7   -0.007272    0.000000
    0    0   -7   29    7    0.004208    0.000000
    0    0   -7   30    7    0.006187    0.000000
    0    0   -7   31    7    0.008509    0.000000
    0    0   -7   32    7    0.011374    0.000000
    0    0   -7   33    7    0.007737    0.000000
    0    0   -7   34    7    0.000003    0.000000
    0    0   -7   35    7   -0.004672    0.000000
    0    0   -7   36    7   -0.004587    0.000000
    0    0   -7   37    7   -0.000462    0.000000
    0    0   -7   38    7    0.009857    0.000000
    0    0   -7   39    7    0.007654    0.000000
    0    0   -7   40    7   -0.014998    0.000000
    0    0   -7   41    7   -0.009807    0.000000
    0    0   -7   42    7   -0.012630    0.000000
    0    0   -7   43    7   -0.007255    0.000000
    0    0   -7   44    7    0.005338    0.000000
    0    0   -7   45    7    0.007925    0.000000
    0    0   -7   46    7    0.008640    0.000000
    0    0   -7   47    7    0.011406    0.000000
    0    0   -7   48    7    0.007429    0.000000
    0    0   -7   49    7    0.001026    0.000000
    0    0   -7   50    7   -0.002744    0.000000
    0    0   -7    1    8   -0.002152    0.000000
    0    0   -7    2    8   -0.003930    0.000000
    0    0   -7    3    8   -0.003935    0.000000
    0    0   -7    4    8   -0.003780    0.000000
    0    0   -7    5    8   -0.004049    0.000000
    0    0   -7    6    8   -0.001670    0.000000
    0    0   -7    7    8   -0.064619    0.000000
    0    0   -7    8    8    0.058200   -0.000000
    0    0   -7    9    8   -0.024330    0.000000
    0    0   -7   10    8   -0.001069    0.000000
    0    0   -7   11    8   -0.005650    0.000000
    0    0   -7   12    8   -0.002853    0.000000
    0    0   -7   13    8   -0.004743    0.000000
    0    0   -7   14    8   -0.002940    0.000000
    0    0   -7   15    8   -0.008553    0.000000
    0    0   -7   16    8   -0.027582    0.000000
    0    0   -7   17    8    0.035276    0.000000
    0    0   -7   18    8   -0.061578    0.000000
    0    0   -7   19    8    0.032830    0.000000
    0    0   -7   20    8   -0.002176    0.000000
    0    0   -7   21    8    0.016005   -0.000000
    0    0   -7   22    8    0.002547   -0.000000
    0    0   -7   23    8   -0.006041   -0.000000
    0    0   -7   24    8   -0.009756   -0.000000
    0    0   -7   25    8   -0.002859   -0.000000
    0    0   -7   26    8    0.010816   -0.000000
    0    0   -7   27    8    0.013949   -0.000000
    0    0   -7   28    8    0.006243   -0.000000
    0    0   -7   29    8   -0.005793   -0.000000
    0    0   -7   30    8   -0.007878   -0.000000
    0    0   -7   31    8   -0.009518   -0.000000
    0    0   -7   32    8   -0.012499   -0.000000
    0    0   -7   33    8   -0.009189   -0.000000
    0    0   -7   34    8   -0.000547   -0.000000
    0    0   -7   35    8    0.005026   -0.000000
    0    0   -7   36    8    0.006555   -0.000000
    0    0   -7   37    8    0.001373   -0.000000
    0    0   -7   38    8   -0.010776   -0.000000
    0    0   -7   39    8   -0.009503   -0.000000
    0    0   -7   40    8    0.011513   -0.000000
    0    0   -7   41    8    0.010382   -0.000000
    0    0   -7   42    8    0.012198   -0.000000
    0    0   -7   43    8    0.006371   -0.000000
    0    0   -7   44    8   -0.006154   -0.000000
    0    0   -7   45    8   -0.008845   -0.000000
    0    0   -7   46    8   -0.009728   -0.000000
    0    0   -7   47    8   -0.012831   -0.000000
    0    0   -7   48    8   -0.008214   -0.000000
    0    0   -7   49    8   -0.001583   -0.000000
    0    0   -7   50    8    0.003148   -0.000000
    0    0   -7    1    9    0.001110   -0.000000
    0    0   -7    2    9    0.001369   -0.000000
    0    0   -7    3    9    0.001736   -0.000000
    0    0   -7    4    9    0.000578   -0.000000
    0    0   -7    5    9    0.000150   -0.000000
    0    0   -7    6    9    0.001878   -0.000000
    0    0   -7    7    9    0.025267    0.000000
    0    0   -7    8    9   -0.024330   -0.000000
    0    0   -7    9    9    0.007878   -0.000000
    0    0   -7   10    9    0.001964   -0.000000
    0    0   -7   11    9    0.002304   -0.000000
    0    0   -7   12    9    0.001328   -0.000000
    0    0   -7   13    9    0.001542   -0.000000
    0    0   -7   14    9    0.001011   -0.000000
    0    0   -7   15    9    0.003893   -0.000000
    0    0   -7   16    9    0.008953   -0.000000
    0    0   -7   17    9   -0.014823   -0.000000
    0    0   -7   18    9    0.023902    0.000000
    0    0   -7   19    9   -0.011521   -0.000000
    0    0   -7   20    9   -0.000475   -0.000000
    0    0   -7   21    9   -0.005225    0.000000
    0    0   -7   22    9    0.000090    0.000000
    0    0   -7   23    9    0.002481    0.000000
    0    0   -7   24    9    0.002640    0.000000
    0    0   -7   25    9    0.000650    0.000000
    0    0   -7   26    9   -0.002013    0.000000
    0    0   -7   27    9   -0.004435    0.000000
    0    0   -7   28    9   -0.003387    0.000000
    0    0   -7   29    9    0.000094    0.000000
    0    0   -7   30    9    0.002273    0.000000
    0    0   -7   31    9    0.003052    0.000000
    0    0   -7   32    9    0.003480    0.000000
    0    0   -7   33    9    0.002673    0.000000
    0    0   -7   34    9    0.001365    0.000000
    0    0   -7   35    9    0.000405    0.000000
    0    0   -7   36    9   -0.001052    0.000000
    0    0   -7   37    9    0.000052    0.000000
    0    0   -7   38    9    0.003568    0.000000
    0    0   -7   39    9    0.002798    0.000000
    0    0   -7   40    9   -0.004286    0.000000
    0    0   -7   41    9   -0.001735    0.000000
    0    0   -7   42    9   -0.003478    0.000000
    0    0   -7   43    9   -0.002832    0.000000
    0    0   -7   44    9    0.000928    0.000000
    0    0   -7   45    9    0.002350    0.000000
    0    0   -7   46    9    0.003486    0.000000
    0    0   -7   47    9    0.003918    0.000000
    0    0   -7   48    9    0.002404    0.000000
    0    0   -7   49    9    0.001663    0.000000
    0    0   -7   50    9    0.001201    0.000000
    0    0   -7    1   10    0.000706    0.000000
    0    0   -7    2   10    0.001513   -0.000000
    0    0   -7    3   10    0.002054   -0.000000
    0    0   -7    4   10    0.001278   -0.000000
    0    0   -7    5   10    0.000952   -0.000000
    0    0   -7    6   10    0.001418   -0.000000
    0    0   -7    7   10    0.004415    0.000000
    0    0   -7    8   10   -0.001069   -0.000000
    0    0   -7    9   10    0.001964    0.000000
    0    0   -7   10   10    0.001690   -0.000000
    0    0   -7   11   10    0.001891   -0.000000
    0    0   -7   12   10    0.001326   -0.000000
    0    0   -7   13   10    0.000888    0.000000
    0    0   -7   14   10    0.001021    0.000000
    0    0   -7   15   10    0.001843    0.000000
    0    0   -7   16   10    0.002552    0.000000
    0    0   -7   17   10   -0.000452   -0.000000
    0    0   -7   18   10    0.003542    0.000000
    0    0   -7   19   10   -0.000155   -0.000000
    0    0   -7   20   10    0.000858   -0.000000
    0    0   -7   21   10   -0.005906    0.000000
    0    0   -7   22   10    0.000005   -0.000000
    0    0   -7   23   10   -0.001963    0.000000
    0    0   -7   24   10   -0.001387    0.000000
    0    0   -7   25   10   -0.004899    0.000000
    0    0   -7   26   10   -0.003390   -0.000000
    0    0   -7   27   10   -0.004065    0.000000
    0    0   -7   28   10   -0.004413    0.000000
    0    0   -7   29   10   -0.002387    0.000000
    0    0   -7   30   10   -0.001842    0.000000
    0    0   -7   31   10   -0.001860    0.000000
    0    0   -7   32   10   -0.001225    0.000000
    0    0   -7   33   10   -0.001143    0.000000
    0    0   -7   34   10   -0.002293    0.000000
    0    0   -7   35   10   -0.003155   -0.000000
    0    0   -7   36   10   -0.000387   -0.000000
    0    0   -7   37   10   -0.001577    0.000000
    0    0   -7   38   10   -0.001240    0.000000
    0    0   -7   39   10   -0.001407    0.000000
    0    0   -7   40   10   -0.007383    0.000000
    0    0   -7   41   10   -0.001663   -0.000000
    0    0   -7   42   10   -0.004095    0.000000
    0    0   -7   43   10   -0.003899    0.000000
    0    0   -7   44   10   -0.001609    0.000000
    0    0   -7   45   10   -0.001027    0.000000
    0    0   -7   46   10   -0.001356    0.000000
    0    0   -7   47   10   -0.000803    0.000000
    0    0   -7   48   10   -0.000938    0.000000
    0    0   -7   49   10   -0.001949    0.000000
    0    0   -7   50   10   -0.001168   -0.000000
    0    0   -7    1   11    0.000913    0.000000
    0    0   -7    2   11    0.001101   -0.000000
    0    0   -7    3   11    0.001003   -0.000000
    0    0   -7    4   11    0.000413   -0.000000
    0    0   -7    5   11    0.000356   -0.000000
    0    0   -7    6   11    0.001909   -0.000000
    0    0   -7    7   11    0.006392    0.000000
    0    0   -7    8   11   -0.005650   -0.000000
    0    0   -7    9   11    0.002304    0.000000
    0    0   -7   10   11    0.001891    0.000000
    0    0   -7   11   11    0.002560   -0.000000
    0    0   -7   12   11    0.001856   -0.000000
    0    0   -7   13   11    0.000465    0.000000
    0    0   -7   14   11    0.001035    0.000000
    0    0   -7   15   11    0.002116    0.000000
    0    0   -7   16   11    0.002317    0.000000
    0    0   -7   17   11   -0.002615   -0.000000
    0    0   -7   18   11    0.007593    0.000000
    0    0   -7   19   11   -0.002133   -0.000000
    0    0   -7   20   11   -0.000290   -0.000000
    0    0   -7   21   11   -0.003911    0.000000
    0    0   -7   22   11   -0.001116   -0.000000
    0    0   -7   23   11   -0.001311   -0.000000
    0    0   -7   24   11   -0.001254    0.000000
    0    0   -7   25   11   -0.002744    0.000000
    0    0   -7   26   11   -0.003547   -0.000000
    0    0   -7   27   11   -0.004282    0.000000
    0    0   -7   28   11   -0.004014    0.000000
    0    0   -7   29   11   -0.003103    0.000000
    0    0   -7   30   11   -0.002252    0.000000
    0    0   -7   31   11   -0.001732    0.000000
    0    0   -7   32   11   -0.001431   -0.000000
    0    0   -7   33   11   -0.001347   -0.000000
    0    0   -7   34   11   -0.001403   -0.000000
    0    0   -7   35   11   -0.001851   -0.000000
    0    0   -7   36   11   -0.002435   -0.000000
    0    0   -7   37   11   -0.002540   -0.000000
    0    0   -7   38   11   -0.001609   -0.000000
    0    0   -7   39   11   -0.001593   -0.000000
    0    0   -7   40   11   -0.005661    0.000000
    0    0   -7   41   11   -0.003547   -0.000000
    0    0   -7   42   11   -0.004282    0.000000
    0    0   -7   43   11   -0.004014    0.000000
    0    0   -7   44   11   -0.003103    0.000000
    0    0   -7   45   11   -0.002252    0.000000
    0    0   -7   46   11   -0.001732    0.000000
    0    0   -7   47   11   -0.001431   -0.000000
    0    0   -7   48   11   -0.001347   -0.000000
    0    0   -7   49   11   -0.001403   -0.000000
    0    0   -7   50   11   -0.001851   -0.000000
    0    0   -7    1   12    0.000754    0.000000
    0    0   -7    2   12    0.000760   -0.000000
    0    0   -7    3   12    0.000993    0.000000
    0    0   -7    4   12    0.000640   -0.000000
    0    0   -7    5   12    0.000085   -0.000000
    0    0   -7    6   12    0.001390   -0.000000
    0    0   -7    7   12    0.004103    0.000000
    0    0   -7    8   12   -0.002853   -0.000000
    0    0   -7    9   12    0.001328    0.000000
    0    0   -7   10   12    0.001326    0.000000
    0    0   -7   11   12    0.001856    0.000000
    0    0   -7   12   12    0.002066   -0.000000
    0    0   -7   13   12    0.000213    0.000000
    0    0   -7   14   12    0.000672    0.000000
    0    0   -7   15   12    0.002295    0.000000
    0    0   -7   16   12    0.001968    0.000000
    0    0   -7   17   12   -0.001122   -0.000000
    0    0   -7   18   12    0.004779    0.000000
    0    0   -7   19   12   -0.000567   -0.000000
    0    0   -7   20   12   -0.000045   -0.000000
    0    0   -7   21   12   -0.003548    0.000000
    0    0   -7   22   12    0.000216   -0.000000
    0    0   -7   23   12   -0.000735   -0.000000
    0    0   -7   24   12   -0.000954   -0.000000
    0    0   -7   25   12   -0.002738    0.000000
    0    0   -7   26   12   -0.003417   -0.000000
    0    0   -7   27   12   -0.004062    0.000000
    0    0   -7   28   12   -0.003495    0.000000
    0    0   -7   29   12   -0.002198    0.000000
    0    0   -7   30   12   -0.001630   -0.000000
    0    0   -7   31   12   -0.001454   -0.000000
    0    0   -7   32   12   -0.001386   -0.000000
    0    0   -7   33   12   -0.001224   -0.000000
    0    0   -7   34   12   -0.001830   -0.000000
    0    0   -7   35   12   -0.002781   -0.000000
    0    0   -7   36   12   -0.001652   -0.000000
    0    0   -7   37   12   -0.001595   -0.000000
    0    0   -7   38   12   -0.001545   -0.000000
    0    0   -7   39   12   -0.001824   -0.000000
    0    0   -7   40   12   -0.007135    0.000000
    0    0   -7   41   12   -0.003417   -0.000000
    0    0   -7   42   12   -0.004062    0.000000
    0    0   -7   43   12   -0.003495    0.000000
    0    0   -7   44   12   -0.002198    0.000000
    0    0   -7   45   12   -0.001630   -0.000000
    0    0   -7   46   12   -0.001454   -0.000000
    0    0   -7   47   12   -0.001386   -0.000000
    0    0   -7   48   12   -0.001224   -0.000000
    0    0   -7   49   12   -0.001830   -0.000000
    0    0   -7   50   12   -0.002781   -0.000000
    0    0   -7    1   13    0.000061    0.000000
    0    0   -7    2   13    0.000181   -0.000000
    0    0   -7    3   13    0.000726   -0.000000
    0    0   -7    4   13    0.000683   -0.000000
    0    0   -7    5   13   -0.000260   -0.000000
    0    0   -7    6   13    0.000572   -0.000000
    0    0   -7    7   13    0.005104    0.000000
    0    0   -7    8   13   -0.004743   -0.000000
    0    0   -7    9   13    0.001542    0.000000
    0    0   -7   10   13    0.000888   -0.000000
    0    0   -7   11   13    0.000465   -0.000000
    0    0   -7   12   13    0.000213   -0.000000
    0    0   -7   13   13   -0.000061   -0.000000
    0    0   -7   14   13    0.000098   -0.000000
    0    0   -7   15   13    0.001201    0.000000
    0    0   -7   16   13    0.001417    0.000000
    0    0   -7   17   13   -0.003644   -0.000000
    0    0   -7   18   13    0.004684    0.000000
    0    0   -7   19   13   -0.002369   -0.000000
    0    0   -7   20   13   -0.000494   -0.000000
    0    0   -7   21   13   -0.001003    0.000000
    0    0   -7   22   13    0.002222   -0.000000
    0    0   -7   23   13    0.000887    0.000000
    0    0   -7   24   13    0.000780    0.000000
    0    0   -7   25   13   -0.000875    0.000000
    0    0   -7   26   13    0.002956   -0.000000
    0    0   -7   27   13    0.001038    0.000000
    0    0   -7   28   13   -0.000536    0.000000
    0    0   -7   29   13    0.000919    0.000000
    0    0   -7   30   13    0.001600    0.000000
    0    0   -7   31   13    0.001110    0.000000
    0    0   -7   32   13    0.001283    0.000000
    0    0   -7   33   13    0.001060    0.000000
    0    0   -7   34   13    0.000934    0.000000
    0    0   -7   35   13    0.002362   -0.000000
    0    0   -7   36   13    0.003856   -0.000000
    0    0   -7   37   13    0.002015    0.000000
    0    0   -7   38   13    0.001540    0.000000
    0    0   -7   39   13    0.001174    0.000000
    0    0   -7   40   13   -0.000824    0.000000
    0    0   -7   41   13    0.002956   -0.000000
    0    0   -7   42   13    0.001038    0.000000
    0    0   -7   43   13   -0.000536    0.000000
    0    0   -7   44   13    0.000919    0.000000
    0    0   -7   45   13    0.001600    0.000000
    0    0   -7   46   13    0.001110    0.000000
    0    0   -7   47   13    0.001283    0.000000
    0    0   -7   48   13    0.001060    0.000000
    0    0   -7   49   13    0.000934    0.000000
    0    0   -7   50   13    0.002362   -0.000000
    0    0   -7    1   14    0.000235   -0.000000
    0    0   -7    2   14    0.000304   -0.000000
    0    0   -7    3   14    0.000515   -0.000000
    0    0   -7    4   14    0.000585   -0.000000
    0    0   -7    5   14    0.000208   -0.000000
    0    0   -7    6   14    0.000565   -0.000000
    0    0   -7    7   14    0.003362    0.000000
    0    0   -7    8   14   -0.002940   -0.000000
    0    0   -7    9   14    0.001011    0.000000
    0    0   -7   10   14    0.001021   -0.000000
    0    0   -7   11   14    0.001035   -0.000000
    0    0   -7   12   14    0.000672   -0.000000
    0    0   -7   13   14    0.000098    0.000000
    0    0   -7   14   14    0.000141   -0.000000
    0    0   -7   15   14    0.000706    0.000000
    0    0   -7   16   14    0.001576    0.000000
    0    0   -7   17   14   -0.001798   -0.000000
    0    0   -7   18   14    0.002989    0.000000
    0    0   -7   19   14   -0.001320   -0.000000
    0    0   -7   20   14    0.000012   -0.000000
    0    0   -7   21   14   -0.001459    0.000000
    0    0   -7   22   14    0.001938   -0.000000
    0    0   -7   23   14    0.000628    0.000000
    0    0   -7   24   14    0.000810    0.000000
    0    0   -7   25   14   -0.001002    0.000000
    0    0   -7   26   14    0.001491   -0.000000
    0    0   -7   27   14   -0.001084    0.000000
    0    0   -7   28   14   -0.002032    0.000000
    0    0   -7   29   14   -0.000348    0.000000
    0    0   -7   30   14    0.000526    0.000000
    0    0   -7   31   14    0.000722    0.000000
    0    0   -7   32   14    0.001111    0.000000
    0    0   -7   33   14    0.000874    0.000000
    0    0   -7   34   14    0.000561    0.000000
    0    0   -7   35   14    0.002004   -0.000000
    0    0   -7   36   14    0.001768   -0.000000
    0    0   -7   37   14    0.000436    0.000000
    0    0   -7   38   14    0.001179    0.000000
    0    0   -7   39   14    0.000967    0.000000
    0    0   -7   40   14   -0.002379    0.000000
    0    0   -7   41   14    0.001491   -0.000000
    0    0   -7   42   14   -0.001084    0.000000
    0    0   -7   43   14   -0.002032    0.000000
    0    0   -7   44   14   -0.000348    0.000000
    0    0   -7   45   14    0.000526    0.000000
    0    0   -7   46   14    0.000722    0.000000
    0    0   -7   47   14    0.001111    0.000000
    0    0   -7   48   14    0.000874    0.000000
    0    0   -7   49   14    0.000561    0.000000
    0    0   -7   50   14    0.002004   -0.000000
    0    0   -7    1   15    0.000968   -0.000000
    0    0   -7    2   15    0.001117   -0.000000
    0    0   -7    3   15    0.001306   -0.000000
    0    0   -7    4   15    0.001064   -0.000000
    0    0   -7    5   15    0.000615   -0.000000
    0    0   -7    6   15    0.001740   -0.000000
    0    0   -7    7   15    0.010029    0.000000
    0    0   -7    8   15   -0.008553   -0.000000
    0    0   -7    9   15    0.003893    0.000000
    0    0   -7   10   15    0.001843   -0.000000
    0    0   -7   11   15    0.002116   -0.000000
    0    0   -7   12   15    0.002295   -0.000000
    0    0   -7   13   15    0.001201   -0.000000
    0    0   -7   14   15    0.000706   -0.000000
    0    0   -7   15   15    0.002840   -0.000000
    0    0   -7   16   15    0.004528    0.000000
    0    0   -7   17   15   -0.004543   -0.000000
    0    0   -7   18   15    0.010791    0.000000
    0    0   -7   19   15   -0.003652   -0.000000
    0    0   -7   20   15    0.000210   -0.000000
    0    0   -7   21   15   -0.005329    0.000000
    0    0   -7   22   15   -0.000751   -0.000000
    0    0   -7   23   15   -0.001330    0.000000
    0    0   -7   24   15   -0.001002    0.000000
    0    0   -7   25   15   -0.003086    0.000000
    0    0   -7   26   15   -0.004401   -0.000000
    0    0   -7   27   15   -0.005383    0.000000
    0    0   -7   28   15   -0.003866    0.000000
    0    0   -7   29   15   -0.002140    0.000000
    0    0   -7   30   15   -0.002246    0.000000
    0    0   -7   31   15   -0.001551    0.000000
    0    0   -7   32   15   -0.000719    0.000000
    0    0   -7   33   15   -0.001608    0.000000
    0    0   -7   34   15   -0.002227    0.000000
    0    0   -7   35   15   -0.002855   -0.000000
    0    0   -7   36   15   -0.002782   -0.000000
    0    0   -7   37   15   -0.002348    0.000000
    0    0   -7   38   15   -0.001073    0.000000
    0    0   -7   39   15   -0.001998    0.000000
    0    0   -7   40   15   -0.006900    0.000000
    0    0   -7   41   15   -0.004401   -0.000000
    0    0   -7   42   15   -0.005383    0.000000
    0    0   -7   43   15   -0.003866    0.000000
    0    0   -7   44   15   -0.002140    0.000000
    0    0   -7   45   15   -0.002246    0.000000
    0    0   -7   46   15   -0.001551    0.000000
    0    0   -7   47   15   -0.000719    0.000000
    0    0   -7   48   15   -0.001608    0.000000
    0    0   -7   49   15   -0.002227    0.000000
    0    0   -7   50   15   -0.002855   -0.000000
    0    0   -7    1   16    0.000633   -0.000000
    0    0   -7    2   16    0.000851   -0.000000
    0    0   -7    3   16    0.001750   -0.000000
    0    0   -7    4   16    0.000734   -0.000000
    0    0   -7    5   16   -0.000665   -0.000000
    0    0   -7    6   16    0.001740   -0.000000
    0    0   -7    7   16    0.026951    0.000000
    0    0   -7    8   16   -0.027582   -0.000000
    0    0   -7    9   16    0.008953    0.000000
    0    0   -7   10   16    0.002552   -0.000000
    0    0   -7   11   16    0.002317   -0.000000
    0    0   -7   12   16    0.001968   -0.000000
    0    0   -7   13   16    0.001417   -0.000000
    0    0   -7   14   16    0.001576   -0.000000
    0    0   -7   15   16    0.004528   -0.000000
    0    0   -7   16   16    0.008564   -0.000000
    0    0   -7   17   16   -0.017714   -0.000000
    0    0   -7   18   16    0.028864    0.000000
    0    0   -7   19   16   -0.013142   -0.000000
    0    0   -7   20   16   -0.001382   -0.000000
    0    0   -7   21   16   -0.004813    0.000000
    0    0   -7   22   16    0.000555    0.000000
    0    0   -7   23   16    0.002119    0.000000
    0    0   -7   24   16    0.002376    0.000000
    0    0   -7   25   16   -0.000261    0.000000
    0    0   -7   26   16   -0.004124    0.000000
    0    0   -7   27   16   -0.003939    0.000000
    0    0   -7   28   16   -0.001753    0.000000
    0    0   -7   29   16    0.001223    0.000000
    0    0   -7   30   16    0.002070    0.000000
    0    0   -7   31   16    0.002839    0.000000
    0    0   -7   32   16    0.002776    0.000000
    0    0   -7   33   16    0.001916    0.000000
    0    0   -7   34   16    0.000114    0.000000
    0    0   -7   35   16   -0.001587    0.000000
    0    0   -7   36   16   -0.001626    0.000000
    0    0   -7   37   16    0.000468    0.000000
    0    0   -7   38   16    0.002816    0.000000
    0    0   -7   39   16    0.001359    0.000000
    0    0   -7   40   16   -0.004746    0.000000
    0    0   -7   41   16   -0.004124    0.000000
    0    0   -7   42   16   -0.003939    0.000000
    0    0   -7   43   16   -0.001753    0.000000
    0    0   -7   44   16    0.001223    0.000000
    0    0   -7   45   16    0.002070    0.000000
    0    0   -7   46   16    0.002839    0.000000
    0    0   -7   47   16    0.002776    0.000000
    0    0   -7   48   16    0.001916    0.000000
    0    0   -7   49   16    0.000114    0.000000
    0    0   -7   50   16   -0.001587    0.000000
    0    0   -7    1   17   -0.000610    0.000000
    0    0   -7    2   17   -0.001736    0.000000
    0    0   -7    3   17   -0.002216    0.000000
    0    0   -7    4   17   -0.002236    0.000000
    0    0   -7    5   17   -0.002523    0.000000
    0    0   -7    6   17   -0.000007    0.000000
    0    0   -7    7   17   -0.038348    0.000000
    0    0   -7    8   17    0.035276   -0.000000
    0    0   -7    9   17   -0.014823    0.000000
    0    0   -7   10   17   -0.000452    0.000000
    0    0   -7   11   17   -0.002615    0.000000
    0    0   -7   12   17   -0.001122    0.000000
    0    0   -7   13   17   -0.003644    0.000000
    0    0   -7   14   17   -0.001798    0.000000
    0    0   -7   15   17   -0.004543    0.000000
    0    0   -7   16   17   -0.017714    0.000000
    0    0   -7   17   17    0.022025   -0.000000
    0    0   -7   18   17   -0.037655    0.000000
    0    0   -7   19   17    0.019863    0.000000
    0    0   -7   20   17   -0.001575    0.000000
    0    0   -7   21   17    0.009303   -0.000000
    0    0   -7   22   17   -0.000274   -0.000000
    0    0   -7   23   17   -0.005345   -0.000000
    0    0   -7   24   17   -0.007214   -0.000000
    0    0   -7   25   17   -0.002948   -0.000000
    0    0   -7   26   17    0.006818   -0.000000
    0    0   -7   27   17    0.007872   -0.000000
    0    0   -7   28   17    0.002524   -0.000000
    0    0   -7   29   17   -0.005653   -0.000000
    0    0   -7   30   17   -0.006424   -0.000000
    0    0   -7   31   17   -0.007399   -0.000000
    0    0   -7   32   17   -0.009323   -0.000000
    0    0   -7   33   17   -0.006463   -0.000000
    0    0   -7   34   17   -0.000920   -0.000000
    0    0   -7   35   17    0.002317   -0.000000
    0    0   -7   36   17    0.003028   -0.000000
    0    0   -7   37   17   -0.000118   -0.000000
    0    0   -7   38   17   -0.008059   -0.000000
    0    0   -7   39   17   -0.006798   -0.000000
    0    0   -7   40   17    0.007215   -0.000000
    0    0   -7   41   17    0.006818   -0.000000
    0    0   -7   42   17    0.007872   -0.000000
    0    0   -7   43   17    0.002524   -0.000000
    0    0   -7   44   17   -0.005653   -0.000000
    0    0   -7   45   17   -0.006424   -0.000000
    0    0   -7   46   17   -0.007399   -0.000000
    0    0   -7   47   17   -0.009323   -0.000000
    0    0   -7   48   17   -0.006463   -0.000000
    0    0   -7   49   17   -0.000920   -0.000000
    0    0   -7   50   17    0.002317   -0.000000
    0    0   -7    1   18    0.002695   -0.000000
    0    0   -7    2   18    0.003609   -0.000000
    0    0   -7    3   18    0.004435   -0.000000
    0    0   -7    4   18    0.003982   -0.000000
    0    0   -7    5   18    0.002941   -0.000000
    0    0   -7    6   18    0.003110   -0.000000
    0    0   -7    7   18    0.066883   -0.000000
    0    0   -7    8   18   -0.061578   -0.000000
    0    0   -7    9   18    0.023902   -0.000000
    0    0   -7   10   18    0.003542   -0.000000
    0    0   -7   11   18    0.007593   -0.000000
    0    0   -7   12   18    0.004779   -0.000000
    0    0   -7   13   18    0.004684   -0.000000
    0    0   -7   14   18    0.002989   -0.000000
    0    0   -7   15   18    0.010791   -0.000000
    0    0   -7   16   18    0.028864   -0.000000
    0    0   -7   17   18   -0.037655   -0.000000
    0    0   -7   18   18    0.066595   -0.000000
    0    0   -7   19   18   -0.033847   -0.000000
    0    0   -7   20   18    0.001013   -0.000000
    0    0   -7   21   18   -0.016682    0.000000
    0    0   -7   22   18    0.000250    0.000000
    0    0   -7   23   18    0.006609    0.000000
    0    0   -7   24   18    0.009208    0.000000
    0    0   -7   25   18    0.000789    0.000000
    0    0   -7   26   18   -0.009903    0.000000
    0    0   -7   27   18   -0.014592    0.000000
    0    0   -7   28   18   -0.009333    0.000000
    0    0   -7   29   18    0.004200    0.000000
    0    0   -7   30   18    0.007370    0.000000
    0    0   -7   31   18    0.008704    0.000000
    0    0   -7   32   18    0.011977    0.000000
    0    0   -7   33   18    0.008251    0.000000
    0    0   -7   34   18    0.001050    0.000000
    0    0   -7   35   18   -0.003004    0.000000
    0    0   -7   36   18   -0.004461    0.000000
    0    0   -7   37   18   -0.001134    0.000000
    0    0   -7   38   18    0.010161    0.000000
    0    0   -7   39   18    0.008830    0.000000
    0    0   -7   40   18   -0.016699    0.000000
    0    0   -7   41   18   -0.009903    0.000000
    0    0   -7   42   18   -0.014592    0.000000
    0    0   -7   43   18   -0.009333    0.000000
    0    0   -7   44   18    0.004200    0.000000
    0    0   -7   45   18    0.007370    0.000000
    0    0   -7   46   18    0.008704    0.000000
    0    0   -7   47   18    0.011977    0.000000
    0    0   -7   48   18    0.008251    0.000000
    0    0   -7   49   18    0.001050    0.000000
    0    0   -7   50   18   -0.003004    0.000000
    0    0   -7    1   19   -0.001171    0.000000
    0    0   -7    2   19   -0.001077    0.000000
    0    0   -7    3   19   -0.000838    0.000000
    0    0   -7    4   19   -0.000625    0.000000
    0    0   -7    5   19   -0.001058    0.000000
    0    0   -7    6   19   -0.000563    0.000000
    0    0   -7    7   19   -0.033356    0.000000
    0    0   -7    8   19    0.032830   -0.000000
    0    0   -7    9   19   -0.011521    0.000000
    0    0   -7   10   19   -0.000155    0.000000
    0    0   -7   11   19   -0.002133    0.000000
    0    0   -7   12   19   -0.000567    0.000000
    0    0   -7   13   19   -0.002369    0.000000
    0    0   -7   14   19   -0.001320    0.000000
    0    0   -7   15   19   -0.003652    0.000000
    0    0   -7   16   19   -0.013142    0.000000
    0    0   -7   17   19    0.019863   -0.000000
    0    0   -7   18   19   -0.033847    0.000000
    0    0   -7   19   19    0.018950   -0.000000
    0    0   -7   20   19   -0.000306    0.000000
    0    0   -7   21   19    0.004268   -0.000000
    0    0   -7   22   19    0.002443   -0.000000
    0    0   -7   23   19   -0.004298   -0.000000
    0    0   -7   24   19   -0.005676   -0.000000
    0    0   -7   25   19   -0.004517   -0.000000
    0    0   -7   26   19    0.004726   -0.000000
    0    0   -7   27   19    0.004449   -0.000000
    0    0   -7   28   19    0.001219   -0.000000
    0    0   -7   29   19   -0.003595   -0.000000
    0    0   -7   30   19   -0.004936   -0.000000
    0    0   -7   31   19   -0.005822   -0.000000
    0    0   -7   32   19   -0.006748   -0.000000
    0    0   -7   33   19   -0.005113   -0.000000
    0    0   -7   34   19   -0.002326   -0.000000
    0    0   -7   35   19    0.001048   -0.000000
    0    0   -7   36   19    0.004373   -0.000000
    0    0   -7   37   19    0.000266   -0.000000
    0    0   -7   38   19   -0.005882   -0.000000
    0    0   -7   39   19   -0.005926   -0.000000
    0    0   -7   40   19    0.001178   -0.000000
    0    0   -7   41   19    0.004726   -0.000000
    0    0   -7   42   19    0.004449   -0.000000
    0    0   -7   43   19    0.001219   -0.000000
    0    0   -7   44   19   -0.003595   -0.000000
    0    0   -7   45   19   -0.004936   -0.000000
    0    0   -7   46   19   -0.005822   -0.000000
    0    0   -7   47   19   -0.006748   -0.000000
    0    0   -7   48   19   -0.005113   -0.000000
    0    0   -7   49   19   -0.002326   -0.000000
    0    0   -7   50   19    0.001048   -0.000000
    0    0   -7    1   20   -0.000394    0.000000
    0    0   -7    2   20   -0.000334    0.000000
    0    0   -7    3   20    0.000070    0.000000
    0    0   -7    4   20   -0.000488    0.000000
    0    0   -7    5   20   -0.001200    0.000000
    0    0   -7    6   20    0.000696    0.000000
    0    0   -7    7   20    0.000559    0.000000
    0    0   -7    8   20   -0.002176   -0.000000
    0    0   -7    9   20   -0.000475    0.000000
    0    0   -7   10   20    0.000858    0.000000
    0    0   -7   11   20   -0.000290    0.000000
    0    0   -7   12   20   -0.000045    0.000000
    0    0   -7   13   20   -0.000494    0.000000
    0    0   -7   14   20    0.000012    0.000000
    0    0   -7   15   20    0.000210    0.000000
    0    0   -7   16   20   -0.001382    0.000000
    0    0   -7   17   20   -0.001575   -0.000000
    0    0   -7   18   20    0.001013    0.000000
    0    0   -7   19   20   -0.000306   -0.000000
    0    0   -7   20   20   -0.001285   -0.000000
    0    0   -7   21   20    0.001341   -0.000000
    0    0   -7   22   20    0.002873   -0.000000
    0    0   -7   23   20    0.001066   -0.000000
    0    0   -7   24   20    0.000645   -0.000000
    0    0   -7   25   20    0.000138   -0.000000
    0    0   -7   26   20    0.003398   -0.000000
    0    0   -7   27   20    0.001801   -0.000000
    0    0   -7   28   20    0.000696   -0.000000
    0    0   -7   29   20    0.000622   -0.000000
    0    0   -7   30   20    0.000856   -0.000000
    0    0   -7   31   20    0.001212   -0.000000
    0    0   -7   32   20    0.000700   -0.000000
    0    0   -7   33   20    0.000361   -0.000000
    0    0   -7   34   20    0.001575   -0.000000
    0    0   -7   35   20    0.003291   -0.000000
    0    0   -7   36   20    0.003103   -0.000000
    0    0   -7   37   20    0.002069   -0.000000
    0    0   -7   38   20    0.001399   -0.000000
    0    0   -7   39   20    0.000389   -0.000000
    0    0   -7   40   20    0.001227    0.000000
    0    0   -7   41   20    0.003398   -0.000000
    0    0   -7   42   20    0.001801   -0.000000
    0    0   -7   43   20    0.000696   -0.000000
    0    0   -7   44   20    0.000622   -0.000000
    0    0   -7   45   20    0.000856   -0.000000
    0    0   -7   46   20    0.001212   -0.000000
    0    0   -7   47   20    0.000700   -0.000000
    0    0   -7   48   20    0.000361   -0.000000
    0    0   -7   49   20    0.001575   -0.000000
    0    0   -7   50   20    0.003291   -0.000000
    0    0   -7    1   21   -0.001150   -0.000000
    0    0   -7    2   21   -0.000671   -0.000000
    0    0   -7    3   21   -0.005327   -0.000000
    0    0   -7    4   21   -0.001222    0.000000
    0    0   -7    5   21    0.002021    0.000000
    0    0   -7    6   21   -0.004297    0.000000
    0    0   -7    7   21   -0.017729   -0.000000
    0    0   -7    8   21    0.016005    0.000000
    0    0   -7    9   21   -0.005225   -0.000000
    0    0   -7   10   21   -0.005906   -0.000000
    0    0   -7   11   21   -0.003911   -0.000000
    0    0   -7   12   21   -0.003548   -0.000000
    0    0   -7   13   21   -0.001003   -0.000000
    0    0   -7   14   21   -0.001459   -0.000000
    0    0   -7   15   21   -0.005329   -0.000000
    0    0   -7   16   21   -0.004813   -0.000000
    0    0   -7   17   21    0.009303    0.000000
    0    0   -7   18   21   -0.016682   -0.000000
    0    0   -7   19   21    0.004268    0.000000
    0    0   -7   20   21    0.001341    0.000000
    0    0   -7   21   21    0.008561   -0.000000
    0    0   -7   22   21   -0.004016    0.000000
    0    0   -7   23   21    0.001291    0.000000
    0    0   -7   24   21    0.002042    0.000000
    0    0   -7   25   21    0.007906   -0.000000
    0    0   -7   26   21    0.001704    0.000000
    0    0   -7   27   21    0.005638    0.000000
    0    0   -7   28   21    0.007522   -0.000000
    0    0   -7   29   21    0.004967    0.000000
    0    0   -7   30   21    0.002882    0.000000
    0    0   -7   31   21    0.002204    0.000000
    0    0   -7   32   21    0.001417    0.000000
    0    0   -7   33   21    0.001798    0.000000
    0    0   -7   34   21    0.001629    0.000000
    0    0   -7   35   21    0.000631    0.000000
    0    0   -7   36   21   -0.002379    0.000000
    0    0   -7   37   21    0.000281    0.000000
    0    0   -7   38   21    0.000993    0.000000
    0    0   -7   39   21    0.002704    0.000000
    0    0   -7   40   21    0.012855   -0.000000
    0    0   -7   41   21    0.000657    0.000000
    0    0   -7   42   21    0.006066    0.000000
    0    0   -7   43   21    0.007105   -0.000000
    0    0   -7   44   21    0.003244    0.000000
    0    0   -7   45   21    0.002001    0.000000
    0    0   -7   46   21    0.001481    0.000000
    0    0   -7   47   21    0.001482    0.000000
    0    0   -7   48   21    0.001632    0.000000
    0    0   -7   49   21    0.001606    0.000000
    0    0   -7   50   21   -0.001058    0.000000
    0    0   -7    1   22    0.003423    0.000000
    0    0   -7    2   22    0.001013    0.000000
    0    0   -7    3   22   -0.001057    0.000000
    0    0   -7    4   22    0.001393    0.000000
    0    0   -7    5   22    0.002392    0.000000
    0    0   -7    6   22   -0.002120    0.000000
    0    0   -7    7   22   -0.000021   -0.000000
    0    0   -7    8   22    0.002547    0.000000
    0    0   -7    9   22    0.000090   -0.000000
    0    0   -7   10   22    0.000005    0.000000
    0    0   -7   11   22   -0.001116    0.000000
    0    0   -7   12   22    0.000216    0.000000
    0    0   -7   13   22    0.002222    0.000000
    0    0   -7   14   22    0.001938    0.000000
    0    0   -7   15   22   -0.000751    0.000000
    0    0   -7   16   22    0.000555   -0.000000
    0    0   -7   17   22   -0.000274    0.000000
    0    0   -7   18   22    0.000250   -0.000000
    0    0   -7   19   22    0.002443    0.000000
    0    0   -7   20   22    0.002873    0.000000
    0    0   -7   21   22   -0.004016   -0.000000
    0    0   -7   22   22   -0.028750   -0.000000
    0    0   -7   23   22   -0.018555   -0.000000
    0    0   -7   24   22   -0.018151   -0.000000
    0    0   -7   25   22   -0.007442   -0.000000
    0    0   -7   26   22   -0.018930   -0.000000
    0    0   -7   27   22   -0.008957   -0.000000
    0    0   -7   28   22   -0.005189   -0.000000
    0    0   -7   29   22   -0.012402   -0.000000
    0    0   -7   30   22   -0.017104   -0.000000
    0    0   -7   31   22   -0.017423   -0.000000
    0    0   -7   32   22   -0.018913   -0.000000
    0    0   -7   33   22   -0.018136   -0.000000
    0    0   -7   34   22   -0.017276   -0.000000
    0    0   -7   35   22   -0.020759   -0.000000
    0    0   -7   36   22   -0.026841    0.000000
    0    0   -7   37   22   -0.016906   -0.000000
    0    0   -7   38   22   -0.018662   -0.000000
    0    0   -7   39   22   -0.017651   -0.000000
    0    0   -7   40   22    0.005757   -0.000000
    0    0   -7   41   22   -0.018942   -0.000000
    0    0   -7   42   22   -0.006261   -0.000000
    0    0   -7   43   22   -0.004136   -0.000000
    0    0   -7   44   22   -0.013456   -0.000000
    0    0   -7   45   22   -0.016123   -0.000000
    0    0   -7   46   22   -0.016219   -0.000000
    0    0   -7   47   22   -0.017129   -0.000000
    0    0   -7   48   22   -0.016343   -0.000000
    0    0   -7   49   22   -0.015088   -0.000000
    0    0   -7   50   22   -0.021422   -0.000000
    0    0   -7    1   23    0.001310   -0.000000
    0    0   -7    2   23   -0.000123    0.000000
    0    0   -7    3   23   -0.001665    0.000000
    0    0   -7    4   23   -0.000092    0.000000
    0    0   -7    5   23    0.001641    0.000000
    0    0   -7    6   23   -0.003269    0.000000
    0    0   -7    7   23    0.005433   -0.000000
    0    0   -7    8   23   -0.006041    0.000000
    0    0   -7    9   23    0.002481   -0.000000
    0    0   -7   10   23   -0.001963   -0.000000
    0    0   -7   11   23   -0.001311    0.000000
    0    0   -7   12   23   -0.000735    0.000000
    0    0   -7   13   23    0.000887   -0.000000
    0    0   -7   14   23    0.000628   -0.000000
    0    0   -7   15   23   -0.001330   -0.000000
    0    0   -7   16   23    0.002119   -0.000000
    0    0   -7   17   23   -0.005345    0.000000
    0    0   -7   18   23    0.006609   -0.000000
    0    0   -7   19   23   -0.004298    0.000000
    0    0   -7   20   23    0.001066    0.000000
    0    0   -7   21   23    0.001291   -0.000000
    0    0   -7   22   23   -0.018555    0.000000
    0    0   -7   23   23   -0.008527   -0.000000
    0    0   -7   24   23   -0.007817   -0.000000
    0    0   -7   25   23    0.000659   -0.000000
    0    0   -7   26   23   -0.010964    0.000000
    0    0   -7   27   23   -0.002914   -0.000000
    0    0   -7   28   23    0.001362   -0.000000
    0    0   -7   29   23   -0.003503   -0.000000
    0    0   -7   30   23   -0.007186   -0.000000
    0    0   -7   31   23   -0.007265   -0.000000
    0    0   -7   32   23   -0.008342   -0.000000
    0    0   -7   33   23   -0.007861   -0.000000
    0    0   -7   34   23   -0.008193    0.000000
    0    0   -7   35   23   -0.011751    0.000000
    0    0   -7   36   23   -0.017135    0.000000
    0    0   -7   37   23   -0.008687    0.000000
    0    0   -7   38   23   -0.008533    0.000000
    0    0   -7   39   23   -0.007423   -0.000000
    0    0   -7   40   23    0.009947   -0.000000
    0    0   -7   41   23   -0.011198    0.000000
    0    0   -7   42   23   -0.000785   -0.000000
    0    0   -7   43   23    0.001677   -0.000000
    0    0   -7   44   23   -0.004928   -0.000000
    0    0   -7   45   23   -0.006713   -0.000000
    0    0   -7   46   23   -0.006841   -0.000000
    0    0   -7   47   23   -0.007341   -0.000000
    0    0   -7   48   23   -0.007119   -0.000000
    0    0   -7   49   23   -0.006652    0.000000
    0    0   -7   50   23   -0.012394    0.000000
    0    0   -7    1   24    0.001005   -0.000000
    0    0   -7    2   24   -0.000168    0.000000
    0    0   -7    3   24   -0.001007    0.000000
    0    0   -7    4   24   -0.000999    0.000000
    0    0   -7    5   24    0.000429    0.000000
    0    0   -7    6   24   -0.002352    0.000000
    0    0   -7    7   24    0.008441   -0.000000
    0    0   -7    8   24   -0.009756    0.000000
    0    0   -7    9   24    0.002640   -0.000000
    0    0   -7   10   24   -0.001387   -0.000000
    0    0   -7   11   24   -0.001254   -0.000000
    0    0   -7   12   24   -0.000954    0.000000
    0    0   -7   13   24    0.000780   -0.000000
    0    0   -7   14   24    0.000810   -0.000000
    0    0   -7   15   24   -0.001002   -0.000000
    0    0   -7   16   24    0.002376   -0.000000
    0    0   -7   17   24   -0.007214    0.000000
    0    0   -7   18   24    0.009208   -0.000000
    0    0   -7   19   24   -0.005676    0.000000
    0    0   -7   20   24    0.000645    0.000000
    0    0   -7   21   24    0.002042   -0.000000
    0    0   -7   22   24   -0.018151    0.000000
    0    0   -7   23   24   -0.007817    0.000000
    0    0   -7   24   24   -0.006913   -0.000000
    0    0   -7   25   24    0.001527   -0.000000
    0    0   -7   26   24   -0.010413    0.000000
    0    0   -7   27   24   -0.002439   -0.000000
    0    0   -7   28   24    0.002068   -0.000000
    0    0   -7   29   24   -0.002669   -0.000000
    0    0   -7   30   24   -0.006426    0.000000
    0    0   -7   31   24   -0.006494    0.000000
    0    0   -7   32   24   -0.007486    0.000000
    0    0   -7   33   24   -0.007088    0.000000
    0    0   -7   34   24   -0.007650    0.000000
    0    0   -7   35   24   -0.011197    0.000000
    0    0   -7   36   24   -0.016938    0.000000
    0    0   -7   37   24   -0.008107    0.000000
    0    0   -7   38   24   -0.007762    0.000000
    0    0   -7   39   24   -0.006793    0.000000
    0    0   -7   40   24    0.010772   -0.000000
    0    0   -7   41   24   -0.011211    0.000000
    0    0   -7   42   24   -0.000349   -0.000000
    0    0   -7   43   24    0.002217   -0.000000
    0    0   -7   44   24   -0.004411   -0.000000
    0    0   -7   45   24   -0.006151    0.000000
    0    0   -7   46   24   -0.006273    0.000000
    0    0   -7   47   24   -0.006693    0.000000
    0    0   -7   48   24   -0.006466    0.000000
    0    0   -7   49   24   -0.006122    0.000000
    0    0   -7   50   24   -0.012266    0.000000
    0    0   -7    1   25   -0.001609   -0.000000
    0    0   -7    2   25   -0.000446   -0.000000
    0    0   -7    3   25   -0.002867   -0.000000
    0    0   -7    4   25   -0.002187   -0.000000
    0    0   -7    5   25    0.000068    0.000000
    0    0   -7    6   25   -0.004016    0.000000
    0    0   -7    7   25   -0.000257   -0.000000
    0    0   -7    8   25   -0.002859    0.000000
    0    0   -7    9   25    0.000650   -0.000000
    0    0   -7   10   25   -0.004899   -0.000000
    0    0   -7   11   25   -0.002744   -0.000000
    0    0   -7   12   25   -0.002738   -0.000000
    0    0   -7   13   25   -0.000875   -0.000000
    0    0   -7   14   25   -0.001002   -0.000000
    0    0   -7   15   25   -0.003086   -0.000000
    0    0   -7   16   25   -0.000261   -0.000000
    0    0   -7   17   25   -0.002948    0.000000
    0    0   -7   18   25    0.000789   -0.000000
    0    0   -7   19   25   -0.004517    0.000000
    0    0   -7   20   25    0.000138    0.000000
    0    0   -7   21   25    0.007906    0.000000
    0    0   -7   22   25   -0.007442    0.000000
    0    0   -7   23   25    0.000659    0.000000
    0    0   -7   24   25    0.001527    0.000000
    0    0   -7   25   25    0.008332   -0.000000
    0    0   -7   26   25   -0.001591    0.000000
    0    0   -7   27   25    0.004368    0.000000
    0    0   -7   28   25    0.008311    0.000000
    0    0   -7   29   25    0.004965    0.000000
    0    0   -7   30   25    0.001993    0.000000
    0    0   -7   31   25    0.001858    0.000000
    0    0   -7   32   25    0.001018    0.000000
    0    0   -7   33   25    0.001306    0.000000
    0    0   -7   34   25    0.000474    0.000000
    0    0   -7   35   25   -0.002114    0.000000
    0    0   -7   36   25   -0.006343    0.000000
    0    0   -7   37   25   -0.000426    0.000000
    0    0   -7   38   25    0.000486    0.000000
    0    0   -7   39   25    0.001734    0.000000
    0    0   -7   40   25    0.014638   -0.000000
    0    0   -7   41   25   -0.002603    0.000000
    0    0   -7   42   25    0.005586    0.000000
    0    0   -7   43   25    0.007944   -0.000000
    0    0   -7   44   25    0.003139    0.000000
    0    0   -7   45   25    0.001618    0.000000
    0    0   -7   46   25    0.001174    0.000000
    0    0   -7   47   25    0.001001    0.000000
    0    0   -7   48   25    0.001186    0.000000
    0    0   -7   49   25    0.001164    0.000000
    0    0   -7   50   25   -0.003529    0.000000
    0    0   -7    1   26    0.001220    0.000000
    0    0   -7    2   26    0.001061    0.000000
    0    0   -7    3   26   -0.002965    0.000000
    0    0   -7    4   26   -0.000567    0.000000
    0    0   -7    5   26    0.002539    0.000000
    0    0   -7    6   26   -0.002545    0.000000
    0    0   -7    7   26   -0.010817   -0.000000
    0    0   -7    8   26    0.010816    0.000000
    0    0   -7    9   26   -0.002013   -0.000000
    0    0   -7   10   26   -0.003390    0.000000
    0    0   -7   11   26   -0.003547    0.000000
    0    0   -7   12   26   -0.003417    0.000000
    0    0   -7   13   26    0.002956    0.000000
    0    0   -7   14   26    0.001491    0.000000
    0    0   -7   15   26   -0.004401    0.000000
    0    0   -7   16   26   -0.004124   -0.000000
    0    0   -7   17   26    0.006818    0.000000
    0    0   -7   18   26   -0.009903   -0.000000
    0    0   -7   19   26    0.004726    0.000000
    0    0   -7   20   26    0.003398    0.000000
    0    0   -7   21   26    0.001704   -0.000000
    0    0   -7   22   26   -0.018930    0.000000
    0    0   -7   23   26   -0.010964   -0.000000
    0    0   -7   24   26   -0.010413   -0.000000
    0    0   -7   25   26   -0.001591   -0.000000
    0    0   -7   26   26   -0.011100   -0.000000
    0    0   -7   27   26   -0.002328   -0.000000
    0    0   -7   28   26    0.000370   -0.000000
    0    0   -7   29   26   -0.006503   -0.000000
    0    0   -7   30   26   -0.009995   -0.000000
    0    0   -7   31   26   -0.010301   -0.000000
    0    0   -7   32   26   -0.011757   -0.000000
    0    0   -7   33   26   -0.010912   -0.000000
    0    0   -7   34   26   -0.009835   -0.000000
    0    0   -7   35   26   -0.013020   -0.000000
    0    0   -7   36   26   -0.017907    0.000000
    0    0   -7   37   26   -0.010762   -0.000000
    0    0   -7   38   26   -0.012298   -0.000000
    0    0   -7   39   26   -0.010850   -0.000000
    0    0   -7   40   26    0.009402   -0.000000
    0    0   -7   41   26   -0.011748    0.000000
    0    0   -7   42   26   -0.001807   -0.000000
    0    0   -7   43   26    0.000141   -0.000000
    0    0   -7   44   26   -0.007461   -0.000000
    0    0   -7   45   26   -0.010439   -0.000000
    0    0   -7   46   26   -0.010872   -0.000000
    0    0   -7   47   26   -0.011764   -0.000000
    0    0   -7   48   26   -0.010925   -0.000000
    0    0   -7   49   26   -0.009770   -0.000000
    0    0   -7   50   26   -0.014019   -0.000000
    0    0   -7    1   27   -0.000260   -0.000000
    0    0   -7    2   27   -0.000963    0.000000
    0    0   -7    3   27   -0.003999    0.000000
    0    0   -7    4   27   -0.000384    0.000000
    0    0   -7    5   27    0.001941    0.000000
    0    0   -7    6   27   -0.003967    0.000000
    0    0   -7    7   27   -0.014686   -0.000000
    0    0   -7    8   27    0.013949    0.000000
    0    0   -7    9   27   -0.004435   -0.000000
    0    0   -7   10   27   -0.004065   -0.000000
    0    0   -7   11   27   -0.004282   -0.000000
    0    0   -7   12   27   -0.004062   -0.000000
    0    0   -7   13   27    0.001038   -0.000000
    0    0   -7   14   27   -0.001084   -0.000000
    0    0   -7   15   27   -0.005383   -0.000000
    0    0   -7   16   27   -0.003939   -0.000000
    0    0   -7   17   27    0.007872    0.000000
    0    0   -7   18   27   -0.014592   -0.000000
    0    0   -7   19   27    0.004449    0.000000
    0    0   -7   20   27    0.001801    0.000000
    0    0   -7   21   27    0.005638   -0.000000
    0    0   -7   22   27   -0.008957    0.000000
    0    0   -7   23   27   -0.002914    0.000000
    0    0   -7   24   27   -0.002439    0.000000
    0    0   -7   25   27    0.004368   -0.000000
    0    0   -7   26   27   -0.002328    0.000000
    0    0   -7   27   27    0.003328   -0.000000
    0    0   -7   28   27    0.005584   -0.000000
    0    0   -7   29   27    0.001786   -0.000000
    0    0   -7   30   27   -0.000897    0.000000
    0    0   -7   31   27   -0.001512    0.000000
    0    0   -7   32   27   -0.002250    0.000000
    0    0   -7   33   27   -0.001977    0.000000
    0    0   -7   34   27   -0.001906    0.000000
    0    0   -7   35   27   -0.003654    0.000000
    0    0   -7   36   27   -0.006244    0.000000
    0    0   -7   37   27   -0.002162    0.000000
    0    0   -7   38   27   -0.002192    0.000000
    0    0   -7   39   27   -0.000485    0.000000
    0    0   -7   40   27    0.012140   -0.000000
    0    0   -7   41   27   -0.001807    0.000000
    0    0   -7   42   27    0.004796   -0.000000
    0    0   -7   43   27    0.006537   -0.000000
    0    0   -7   44   27    0.001716    0.000000
    0    0   -7   45   27   -0.000143    0.000000
    0    0   -7   46   27   -0.000508    0.000000
    0    0   -7   47   27   -0.000893    0.000000
    0    0   -7   48   27   -0.000470    0.000000
    0    0   -7   49   27   -0.000655    0.000000
    0    0   -7   50   27   -0.003814    0.000000
    0    0   -7    1   28   -0.000465   -0.000000
    0    0   -7    2   28   -0.001917   -0.000000
    0    0   -7    3   28   -0.003753   -0.000000
    0    0   -7    4   28   -0.000648   -0.000000
    0    0   -7    5   28    0.000441    0.000000
    0    0   -7    6   28   -0.004544    0.000000
    0    0   -7    7   28   -0.007272   -0.000000
    0    0   -7    8   28    0.006243    0.000000
    0    0   -7    9   28   -0.003387   -0.000000
    0    0   -7   10   28   -0.004413   -0.000000
    0    0   -7   11   28   -0.004014   -0.000000
    0    0   -7   12   28   -0.003495   -0.000000
    0    0   -7   13   28   -0.000536   -0.000000
    0    0   -7   14   28   -0.002032   -0.000000
    0    0   -7   15   28   -0.003866   -0.000000
    0    0   -7   16   28   -0.001753   -0.000000
    0    0   -7   17   28    0.002524    0.000000
    0    0   -7   18   28   -0.009333   -0.000000
    0    0   -7   19   28    0.001219    0.000000
    0    0   -7   20   28    0.000696    0.000000
    0    0   -7   21   28    0.007522    0.000000
    0    0   -7   22   28   -0.005189    0.000000
    0    0   -7   23   28    0.001362    0.000000
    0    0   -7   24   28    0.002068    0.000000
    0    0   -7   25   28    0.008311   -0.000000
    0    0   -7   26   28    0.000370    0.000000
    0    0   -7   27   28    0.005584    0.000000
    0    0   -7   28   28    0.008244   -0.000000
    0    0   -7   29   28    0.005328    0.000000
    0    0   -7   30   28    0.003111    0.000000
    0    0   -7   31   28    0.002637    0.000000
    0    0   -7   32   28    0.002094    0.000000
    0    0   -7   33   28    0.002371    0.000000
    0    0   -7   34   28    0.001515    0.000000
    0    0   -7   35   28   -0.000740    0.000000
    0    0   -7   36   28   -0.003602    0.000000
    0    0   -7   37   28    0.000703    0.000000
    0    0   -7   38   28    0.001669    0.000000
    0    0   -7   39   28    0.003275    0.000000
    0    0   -7   40   28    0.014033   -0.000000
    0    0   -7   41   28    0.000141    0.000000
    0    0   -7   42   28    0.006537    0.000000
    0    0   -7   43   28    0.008330    0.000000
    0    0   -7   44   28    0.004497    0.000000
    0    0   -7   45   28    0.003093    0.000000
    0    0   -7   46   28    0.002694    0.000000
    0    0   -7   47   28    0.002438    0.000000
    0    0   -7   48   28    0.002548    0.000000
    0    0   -7   49   28    0.002086    0.000000
    0    0   -7   50   28   -0.001188    0.000000
    0    0   -7    1   29    0.000743   -0.000000
    0    0   -7    2   29   -0.001088    0.000000
    0    0   -7    3   29   -0.002699   -0.000000
    0    0   -7    4   29   -0.000903    0.000000
    0    0   -7    5   29    0.000360    0.000000
    0    0   -7    6   29   -0.003675    0.000000
    0    0   -7    7   29    0.004208   -0.000000
    0    0   -7    8   29   -0.005793    0.000000
    0    0   -7    9   29    0.000094   -0.000000
    0    0   -7   10   29   -0.002387   -0.000000
    0    0   -7   11   29   -0.003103   -0.000000
    0    0   -7   12   29   -0.002198   -0.000000
    0    0   -7   13   29    0.000919   -0.000000
    0    0   -7   14   29   -0.000348   -0.000000
    0    0   -7   15   29   -0.002140   -0.000000
    0    0   -7   16   29    0.001223   -0.000000
    0    0   -7   17   29   -0.005653    0.000000
    0    0   -7   18   29    0.004200   -0.000000
    0    0   -7   19   29   -0.003595    0.000000
    0    0   -7   20   29    0.000622    0.000000
    0    0   -7   21   29    0.004967   -0.000000
    0    0   -7   22   29   -0.012402    0.000000
    0    0   -7   23   29   -0.003503    0.000000
    0    0   -7   24   29   -0.002669    0.000000
    0    0   -7   25   29    0.004965   -0.000000
    0    0   -7   26   29   -0.006503    0.000000
    0    0   -7   27   29    0.001786    0.000000
    0    0   -7   28   29    0.005328   -0.000000
    0    0   -7   29   29    0.000123   -0.000000
    0    0   -7   30   29   -0.002646    0.000000
    0    0   -7   31   29   -0.002639    0.000000
    0    0   -7   32   29   -0.003585    0.000000
    0    0   -7   33   29   -0.003151    0.000000
    0    0   -7   34   29   -0.003469    0.000000
    0    0   -7   35   29   -0.007485    0.000000
    0    0   -7   36   29   -0.012844    0.000000
    0    0   -7   37   29   -0.004840    0.000000
    0    0   -7   38   29   -0.004553    0.000000
    0    0   -7   39   29   -0.003310    0.000000
    0    0   -7   40   29    0.013133   -0.000000
    0    0   -7   41   29   -0.007461    0.000000
    0    0   -7   42   29    0.001716   -0.000000
    0    0   -7   43   29    0.004497   -0.000000
    0    0   -7   44   29   -0.001393    0.000000
    0    0   -7   45   29   -0.003501    0.000000
    0    0   -7   46   29   -0.003543    0.000000
    0    0   -7   47   29   -0.004178    0.000000
    0    0   -7   48   29   -0.003990    0.000000
    0    0   -7   49   29   -0.003861    0.000000
    0    0   -7   50   29   -0.008511    0.000000
    0    0   -7    1   30    0.001236   -0.000000
    0    0   -7    2   30   -0.000737    0.000000
    0    0   -7    3   30   -0.001861    0.000000
    0    0   -7    4   30   -0.000569    0.000000
    0    0   -7    5   30    0.001172    0.000000
    0    0   -7    6   30   -0.003351    0.000000
    0    0   -7    7   30    0.006187   -0.000000
    0    0   -7    8   30   -0.007878    0.000000
    0    0   -7    9   30    0.002273   -0.000000
    0    0   -7   10   30   -0.001842   -0.000000
    0    0   -7   11   30   -0.002252   -0.000000
    0    0   -7   12   30   -0.001630    0.000000
    0    0   -7   13   30    0.001600   -0.000000
    0    0   -7   14   30    0.000526   -0.000000
    0    0   -7   15   30   -0.002246   -0.000000
    0    0   -7   16   30    0.002070   -0.000000
    0    0   -7   17   30   -0.006424    0.000000
    0    0   -7   18   30    0.007370   -0.000000
    0    0   -7   19   30   -0.004936    0.000000
    0    0   -7   20   30    0.000856    0.000000
    0    0   -7   21   30    0.002882   -0.000000
    0    0   -7   22   30   -0.017104    0.000000
    0    0   -7   23   30   -0.007186    0.000000
    0    0   -7   24   30   -0.006426   -0.000000
    0    0   -7   25   30    0.001993   -0.000000
    0    0   -7   26   30   -0.009995    0.000000
    0    0   -7   27   30   -0.000897   -0.000000
    0    0   -7   28   30    0.003111   -0.000000
    0    0   -7   29   30   -0.002646   -0.000000
    0    0   -7   30   30   -0.005997   -0.000000
    0    0   -7   31   30   -0.006015   -0.000000
    0    0   -7   32   30   -0.006994    0.000000
    0    0   -7   33   30   -0.006664    0.000000
    0    0   -7   34   30   -0.006728    0.000000
    0    0   -7   35   30   -0.010882    0.000000
    0    0   -7   36   30   -0.016660    0.000000
    0    0   -7   37   30   -0.007572    0.000000
    0    0   -7   38   30   -0.007544    0.000000
    0    0   -7   39   30   -0.006393   -0.000000
    0    0   -7   40   30    0.012008   -0.000000
    0    0   -7   41   30   -0.010439    0.000000
    0    0   -7   42   30   -0.000143   -0.000000
    0    0   -7   43   30    0.003093   -0.000000
    0    0   -7   44   30   -0.003501   -0.000000
    0    0   -7   45   30   -0.005998    0.000000
    0    0   -7   46   30   -0.005914   -0.000000
    0    0   -7   47   30   -0.006616    0.000000
    0    0   -7   48   30   -0.006346    0.000000
    0    0   -7   49   30   -0.006158    0.000000
    0    0   -7   50   30   -0.011545    0.000000
    0    0   -7    1   31    0.000801   -0.000000
    0    0   -7    2   31   -0.000212    0.000000
    0    0   -7    3   31   -0.001137    0.000000
    0    0   -7    4   31   -0.000550    0.000000
    0    0   -7    5   31    0.000828    0.000000
    0    0   -7    6   31   -0.003380    0.000000
    0    0   -7    7   31    0.008509   -0.000000
    0    0   -7    8   31   -0.009518    0.000000
    0    0   -7    9   31    0.003052   -0.000000
    0    0   -7   10   31   -0.001860   -0.000000
    0    0   -7   11   31   -0.001732   -0.000000
    0    0   -7   12   31   -0.001454    0.000000
    0    0   -7   13   31    0.001110   -0.000000
    0    0   -7   14   31    0.000722   -0.000000
    0    0   -7   15   31   -0.001551   -0.000000
    0    0   -7   16   31    0.002839   -0.000000
    0    0   -7   17   31   -0.007399    0.000000
    0    0   -7   18   31    0.008704   -0.000000
    0    0   -7   19   31   -0.005822    0.000000
    0    0   -7   20   31    0.001212    0.000000
    0    0   -7   21   31    0.002204   -0.000000
    0    0   -7   22   31   -0.017423    0.000000
    0    0   -7   23   31   -0.007265    0.000000
    0    0   -7   24   31   -0.006494   -0.000000
    0    0   -7   25   31    0.001858   -0.000000
    0    0   -7   26   31   -0.010301    0.000000
    0    0   -7   27   31   -0.001512   -0.000000
    0    0   -7   28   31    0.002637   -0.000000
    0    0   -7   29   31   -0.002639   -0.000000
    0    0   -7   30   31   -0.006015    0.000000
    0    0   -7   31   31   -0.006128   -0.000000
    0    0   -7   32   31   -0.007026    0.000000
    0    0   -7   33   31   -0.006635    0.000000
    0    0   -7   34   31   -0.007035    0.000000
    0    0   -7   35   31   -0.011273    0.000000
    0    0   -7   36   31   -0.016767    0.000000
    0    0   -7   37   31   -0.007825    0.000000
    0    0   -7   38   31   -0.007557    0.000000
    0    0   -7   39   31   -0.006513    0.000000
    0    0   -7   40   31    0.011332   -0.000000
    0    0   -7   41   31   -0.010872    0.000000
    0    0   -7   42   31   -0.000508   -0.000000
    0    0   -7   43   31    0.002694   -0.000000
    0    0   -7   44   31   -0.003543   -0.000000
    0    0   -7   45   31   -0.005914    0.000000
    0    0   -7   46   31   -0.006160    0.000000
    0    0   -7   47   31   -0.006759    0.000000
    0    0   -7   48   31   -0.006426    0.000000
    0    0   -7   49   31   -0.006298    0.000000
    0    0   -7   50   31   -0.011896    0.000000
    0    0   -7    1   32    0.001327   -0.000000
    0    0   -7    2   32    0.000048    0.000000
    0    0   -7    3   32   -0.000610    0.000000
    0    0   -7    4   32   -0.001110    0.000000
    0    0   -7    5   32    0.000308    0.000000
    0    0   -7    6   32   -0.002338    0.000000
    0    0   -7    7   32    0.011374   -0.000000
    0    0   -7    8   32   -0.012499    0.000000
    0    0   -7    9   32    0.003480   -0.000000
    0    0   -7   10   32   -0.001225   -0.000000
    0    0   -7   11   32   -0.001431    0.000000
    0    0   -7   12   32   -0.001386    0.000000
    0    0   -7   13   32    0.001283   -0.000000
    0    0   -7   14   32    0.001111   -0.000000
    0    0   -7   15   32   -0.000719   -0.000000
    0    0   -7   16   32    0.002776   -0.000000
    0    0   -7   17   32   -0.009323    0.000000
    0    0   -7   18   32    0.011977   -0.000000
    0    0   -7   19   32   -0.006748    0.000000
    0    0   -7   20   32    0.000700    0.000000
    0    0   -7   21   32    0.001417   -0.000000
    0    0   -7   22   32   -0.018913    0.000000
    0    0   -7   23   32   -0.008342    0.000000
    0    0   -7   24   32   -0.007486   -0.000000
    0    0   -7   25   32    0.001018   -0.000000
    0    0   -7   26   32   -0.011757    0.000000
    0    0   -7   27   32   -0.002250   -0.000000
    0    0   -7   28   32    0.002094   -0.000000
    0    0   -7   29   32   -0.003585   -0.000000
    0    0   -7   30   32   -0.006994   -0.000000
    0    0   -7   31   32   -0.007026   -0.000000
    0    0   -7   32   32   -0.008075   -0.000000
    0    0   -7   33   32   -0.007592   -0.000000
    0    0   -7   34   32   -0.007834    0.000000
    0    0   -7   35   32   -0.012555    0.000000
    0    0   -7   36   32   -0.018261    0.000000
    0    0   -7   37   32   -0.008576    0.000000
    0    0   -7   38   32   -0.008399    0.000000
    0    0   -7   39   32   -0.007489   -0.000000
    0    0   -7   40   32    0.011345   -0.000000
    0    0   -7   41   32   -0.011764    0.000000
    0    0   -7   42   32   -0.000893   -0.000000
    0    0   -7   43   32    0.002438   -0.000000
    0    0   -7   44   32   -0.004178   -0.000000
    0    0   -7   45   32   -0.006616   -0.000000
    0    0   -7   46   32   -0.006759   -0.000000
    0    0   -7   47   32   -0.007511   -0.000000
[...]
    0    0    7    2   43   -0.001838   -0.000000
    0    0    7    3   43   -0.000846   -0.000000
    0    0    7    4   43   -0.002207   -0.000000
    0    0    7    5   43   -0.000212    0.000000
    0    0    7    6   43   -0.003900    0.000000
    0    0    7    7   43   -0.007255   -0.000000
    0    0    7    8   43    0.006371    0.000000
    0    0    7    9   43   -0.002832   -0.000000
    0    0    7   10   43   -0.003899   -0.000000
    0    0    7   11   43   -0.004014   -0.000000
    0    0    7   12   43   -0.003495   -0.000000
    0    0    7   13   43   -0.000536   -0.000000
    0    0    7   14   43   -0.002032   -0.000000
    0    0    7   15   43   -0.003866   -0.000000
    0    0    7   16   43   -0.001753   -0.000000
    0    0    7   17   43    0.002524    0.000000
    0    0    7   18   43   -0.009333   -0.000000
    0    0    7   19   43    0.001219    0.000000
    0    0    7   20   43    0.000696    0.000000
    0    0    7   21   43    0.007105    0.000000
    0    0    7   22   43   -0.004136    0.000000
    0    0    7   23   43    0.001677    0.000000
    0    0    7   24   43    0.002217    0.000000
    0    0    7   25   43    0.007944    0.000000
    0    0    7   26   43    0.000141    0.000000
    0    0    7   27   43    0.006537    0.000000
    0    0    7   28   43    0.008330   -0.000000
    0    0    7   29   43    0.004497    0.000000
    0    0    7   30   43    0.003093    0.000000
    0    0    7   31   43    0.002694    0.000000
    0    0    7   32   43    0.002438    0.000000
    0    0    7   33   43    0.002548    0.000000
    0    0    7   34   43    0.002086    0.000000
    0    0    7   35   43   -0.001188    0.000000
    0    0    7   36   43   -0.003602    0.000000
    0    0    7   37   43    0.000703    0.000000
    0    0    7   38   43    0.001669    0.000000
    0    0    7   39   43    0.003275    0.000000
    0    0    7   40   43    0.014033   -0.000000
    0    0    7   41   43    0.000370    0.000000
    0    0    7   42   43    0.005584    0.000000
    0    0    7   43   43    0.008244    0.000000
    0    0    7   44   43    0.005328    0.000000
    0    0    7   45   43    0.003111    0.000000
    0    0    7   46   43    0.002637    0.000000
    0    0    7   47   43    0.002094    0.000000
    0    0    7   48   43    0.002371    0.000000
    0    0    7   49   43    0.001515    0.000000
    0    0    7   50   43   -0.000740    0.000000
    0    0    7    1   44    0.000599   -0.000000
    0    0    7    2   44   -0.001253    0.000000
    0    0    7    3   44   -0.000313    0.000000
    0    0    7    4   44   -0.001182    0.000000
    0    0    7    5   44   -0.000427    0.000000
    0    0    7    6   44   -0.002879    0.000000
    0    0    7    7   44    0.005338   -0.000000
    0    0    7    8   44   -0.006154    0.000000
    0    0    7    9   44    0.000928   -0.000000
    0    0    7   10   44   -0.001609   -0.000000
    0    0    7   11   44   -0.003103   -0.000000
    0    0    7   12   44   -0.002198   -0.000000
    0    0    7   13   44    0.000919   -0.000000
    0    0    7   14   44   -0.000348   -0.000000
    0    0    7   15   44   -0.002140   -0.000000
    0    0    7   16   44    0.001223   -0.000000
    0    0    7   17   44   -0.005653    0.000000
    0    0    7   18   44    0.004200   -0.000000
    0    0    7   19   44   -0.003595    0.000000
    0    0    7   20   44    0.000622    0.000000
    0    0    7   21   44    0.003244   -0.000000
    0    0    7   22   44   -0.013456    0.000000
    0    0    7   23   44   -0.004928    0.000000
    0    0    7   24   44   -0.004411    0.000000
    0    0    7   25   44    0.003139   -0.000000
    0    0    7   26   44   -0.007461    0.000000
    0    0    7   27   44    0.001716   -0.000000
    0    0    7   28   44    0.004497   -0.000000
    0    0    7   29   44   -0.001393   -0.000000
    0    0    7   30   44   -0.003501    0.000000
    0    0    7   31   44   -0.003543    0.000000
    0    0    7   32   44   -0.004178    0.000000
    0    0    7   33   44   -0.003990    0.000000
    0    0    7   34   44   -0.003861    0.000000
    0    0    7   35   44   -0.008511    0.000000
    0    0    7   36   44   -0.012844    0.000000
    0    0    7   37   44   -0.004840    0.000000
    0    0    7   38   44   -0.004553    0.000000
    0    0    7   39   44   -0.003310    0.000000
    0    0    7   40   44    0.013133   -0.000000
    0    0    7   41   44   -0.006503    0.000000
    0    0    7   42   44    0.001786    0.000000
    0    0    7   43   44    0.005328   -0.000000
    0    0    7   44   44    0.000123    0.000000
    0    0    7   45   44   -0.002645    0.000000
    0    0    7   46   44   -0.002639    0.000000
    0    0    7   47   44   -0.003585    0.000000
    0    0    7   48   44   -0.003151    0.000000
    0    0    7   49   44   -0.003469    0.000000
    0    0    7   50   44   -0.007485    0.000000
    0    0    7    1   45    0.000793   -0.000000
    0    0    7    2   45   -0.000750    0.000000
    0    0    7    3   45   -0.000294    0.000000
    0    0    7    4   45   -0.000813    0.000000
    0    0    7    5   45    0.000307    0.000000
    0    0    7    6   45   -0.002825    0.000000
    0    0    7    7   45    0.007925   -0.000000
    0    0    7    8   45   -0.008845    0.000000
    0    0    7    9   45    0.002350   -0.000000
    0    0    7   10   45   -0.001027   -0.000000
    0    0    7   11   45   -0.002252   -0.000000
    0    0    7   12   45   -0.001630    0.000000
    0    0    7   13   45    0.001600   -0.000000
    0    0    7   14   45    0.000526   -0.000000
    0    0    7   15   45   -0.002246   -0.000000
    0    0    7   16   45    0.002070   -0.000000
    0    0    7   17   45   -0.006424    0.000000
    0    0    7   18   45    0.007370   -0.000000
    0    0    7   19   45   -0.004936    0.000000
    0    0    7   20   45    0.000856    0.000000
    0    0    7   21   45    0.002001   -0.000000
    0    0    7   22   45   -0.016123    0.000000
    0    0    7   23   45   -0.006713    0.000000
    0    0    7   24   45   -0.006151   -0.000000
    0    0    7   25   45    0.001618   -0.000000
    0    0    7   26   45   -0.010439    0.000000
    0    0    7   27   45   -0.000143   -0.000000
    0    0    7   28   45    0.003093   -0.000000
    0    0    7   29   45   -0.003501   -0.000000
    0    0    7   30   45   -0.005998   -0.000000
    0    0    7   31   45   -0.005914   -0.000000
    0    0    7   32   45   -0.006616    0.000000
    0    0    7   33   45   -0.006346    0.000000
    0    0    7   34   45   -0.006158    0.000000
    0    0    7   35   45   -0.011545    0.000000
    0    0    7   36   45   -0.016660    0.000000
    0    0    7   37   45   -0.007572    0.000000
    0    0    7   38   45   -0.007544    0.000000
    0    0    7   39   45   -0.006393   -0.000000
    0    0    7   40   45    0.012008   -0.000000
    0    0    7   41   45   -0.009995    0.000000
    0    0    7   42   45   -0.000897   -0.000000
    0    0    7   43   45    0.003111   -0.000000
    0    0    7   44   45   -0.002645   -0.000000
    0    0    7   45   45   -0.005997    0.000000
    0    0    7   46   45   -0.006015   -0.000000
    0    0    7   47   45   -0.006994    0.000000
    0    0    7   48   45   -0.006664    0.000000
    0    0    7   49   45   -0.006728    0.000000
    0    0    7   50   45   -0.010882    0.000000
    0    0    7    1   46    0.000578   -0.000000
    0    0    7    2   46   -0.000368    0.000000
    0    0    7    3   46    0.000166   -0.000000
    0    0    7    4   46   -0.001031    0.000000
    0    0    7    5   46    0.000400    0.000000
    0    0    7    6   46   -0.002378    0.000000
    0    0    7    7   46    0.008640   -0.000000
    0    0    7    8   46   -0.009728    0.000000
    0    0    7    9   46    0.003486   -0.000000
    0    0    7   10   46   -0.001356   -0.000000
    0    0    7   11   46   -0.001732   -0.000000
    0    0    7   12   46   -0.001454    0.000000
    0    0    7   13   46    0.001110   -0.000000
    0    0    7   14   46    0.000722   -0.000000
    0    0    7   15   46   -0.001551   -0.000000
    0    0    7   16   46    0.002839   -0.000000
    0    0    7   17   46   -0.007399    0.000000
    0    0    7   18   46    0.008704   -0.000000
    0    0    7   19   46   -0.005822    0.000000
    0    0    7   20   46    0.001212    0.000000
    0    0    7   21   46    0.001481   -0.000000
    0    0    7   22   46   -0.016219    0.000000
    0    0    7   23   46   -0.006841    0.000000
    0    0    7   24   46   -0.006273   -0.000000
    0    0    7   25   46    0.001174   -0.000000
    0    0    7   26   46   -0.010872    0.000000
    0    0    7   27   46   -0.000508   -0.000000
    0    0    7   28   46    0.002694   -0.000000
    0    0    7   29   46   -0.003543   -0.000000
    0    0    7   30   46   -0.005914    0.000000
    0    0    7   31   46   -0.006160   -0.000000
    0    0    7   32   46   -0.006759    0.000000
    0    0    7   33   46   -0.006426    0.000000
    0    0    7   34   46   -0.006298    0.000000
    0    0    7   35   46   -0.011896    0.000000
    0    0    7   36   46   -0.016767    0.000000
    0    0    7   37   46   -0.007825    0.000000
    0    0    7   38   46   -0.007557    0.000000
    0    0    7   39   46   -0.006513    0.000000
    0    0    7   40   46    0.011332   -0.000000
    0    0    7   41   46   -0.010301    0.000000
    0    0    7   42   46   -0.001512   -0.000000
    0    0    7   43   46    0.002637   -0.000000
    0    0    7   44   46   -0.002639   -0.000000
    0    0    7   45   46   -0.006015    0.000000
    0    0    7   46   46   -0.006128    0.000000
    0    0    7   47   46   -0.007026    0.000000
    0    0    7   48   46   -0.006635    0.000000
    0    0    7   49   46   -0.007035    0.000000
    0    0    7   50   46   -0.011273    0.000000
    0    0    7    1   47    0.000585   -0.000000
    0    0    7    2   47   -0.000180    0.000000
    0    0    7    3   47    0.000102    0.000000
    0    0    7    4   47   -0.000903    0.000000
    0    0    7    5   47   -0.000199    0.000000
    0    0    7    6   47   -0.001993    0.000000
    0    0    7    7   47    0.011406   -0.000000
    0    0    7    8   47   -0.012831    0.000000
    0    0    7    9   47    0.003918   -0.000000
    0    0    7   10   47   -0.000803   -0.000000
    0    0    7   11   47   -0.001431    0.000000
    0    0    7   12   47   -0.001386    0.000000
    0    0    7   13   47    0.001283   -0.000000
    0    0    7   14   47    0.001111   -0.000000
    0    0    7   15   47   -0.000719   -0.000000
    0    0    7   16   47    0.002776   -0.000000
    0    0    7   17   47   -0.009323    0.000000
    0    0    7   18   47    0.011977   -0.000000
    0    0    7   19   47   -0.006748    0.000000
    0    0    7   20   47    0.000700    0.000000
    0    0    7   21   47    0.001482   -0.000000
    0    0    7   22   47   -0.017129    0.000000
    0    0    7   23   47   -0.007341    0.000000
    0    0    7   24   47   -0.006693   -0.000000
    0    0    7   25   47    0.001001   -0.000000
    0    0    7   26   47   -0.011764    0.000000
    0    0    7   27   47   -0.000893   -0.000000
    0    0    7   28   47    0.002438   -0.000000
    0    0    7   29   47   -0.004178   -0.000000
    0    0    7   30   47   -0.006616   -0.000000
    0    0    7   31   47   -0.006759   -0.000000
    0    0    7   32   47   -0.007511    0.000000
    0    0    7   33   47   -0.007035   -0.000000
    0    0    7   34   47   -0.006862    0.000000
    0    0    7   35   47   -0.012820    0.000000
    0    0    7   36   47   -0.018261    0.000000
    0    0    7   37   47   -0.008576    0.000000
    0    0    7   38   47   -0.008399    0.000000
    0    0    7   39   47   -0.007489   -0.000000
    0    0    7   40   47    0.011345   -0.000000
    0    0    7   41   47   -0.011757    0.000000
    0    0    7   42   47   -0.002250   -0.000000
    0    0    7   43   47    0.002094   -0.000000
    0    0    7   44   47   -0.003585   -0.000000
    0    0    7   45   47   -0.006994   -0.000000
    0    0    7   46   47   -0.007026   -0.000000
    0    0    7   47   47   -0.008075    0.000000
    0    0    7   48   47   -0.007592   -0.000000
    0    0    7   49   47   -0.007834    0.000000
    0    0    7   50   47   -0.012555    0.000000
    0    0    7    1   48    0.000879   -0.000000
    0    0    7    2   48   -0.000775    0.000000
    0    0    7    3   48   -0.000140    0.000000
    0    0    7    4   48   -0.000680    0.000000
    0    0    7    5   48    0.000554    0.000000
    0    0    7    6   48   -0.002710    0.000000
    0    0    7    7   48    0.007429   -0.000000
    0    0    7    8   48   -0.008214    0.000000
    0    0    7    9   48    0.002404   -0.000000
    0    0    7   10   48   -0.000938   -0.000000
    0    0    7   11   48   -0.001347    0.000000
    0    0    7   12   48   -0.001224    0.000000
    0    0    7   13   48    0.001060   -0.000000
    0    0    7   14   48    0.000874   -0.000000
    0    0    7   15   48   -0.001608   -0.000000
    0    0    7   16   48    0.001916   -0.000000
    0    0    7   17   48   -0.006463    0.000000
    0    0    7   18   48    0.008251   -0.000000
    0    0    7   19   48   -0.005113    0.000000
    0    0    7   20   48    0.000361    0.000000
    0    0    7   21   48    0.001632   -0.000000
    0    0    7   22   48   -0.016343    0.000000
    0    0    7   23   48   -0.007119    0.000000
    0    0    7   24   48   -0.006466   -0.000000
    0    0    7   25   48    0.001186   -0.000000
    0    0    7   26   48   -0.010925    0.000000
    0    0    7   27   48   -0.000470   -0.000000
    0    0    7   28   48    0.002548   -0.000000
    0    0    7   29   48   -0.003990   -0.000000
    0    0    7   30   48   -0.006346   -0.000000
    0    0    7   31   48   -0.006426   -0.000000
    0    0    7   32   48   -0.007035    0.000000
    0    0    7   33   48   -0.006779   -0.000000
    0    0    7   34   48   -0.006522    0.000000
    0    0    7   35   48   -0.012059    0.000000
    0    0    7   36   48   -0.017279    0.000000
    0    0    7   37   48   -0.008237    0.000000
    0    0    7   38   48   -0.008021    0.000000
    0    0    7   39   48   -0.006939   -0.000000
    0    0    7   40   48    0.011283   -0.000000
    0    0    7   41   48   -0.010912    0.000000
    0    0    7   42   48   -0.001977   -0.000000
    0    0    7   43   48    0.002371   -0.000000
    0    0    7   44   48   -0.003151   -0.000000
    0    0    7   45   48   -0.006664   -0.000000
    0    0    7   46   48   -0.006635   -0.000000
    0    0    7   47   48   -0.007592    0.000000
    0    0    7   48   48   -0.007228    0.000000
    0    0    7   49   48   -0.007458    0.000000
    0    0    7   50   48   -0.011689    0.000000
    0    0    7    1   49    0.000405   -0.000000
    0    0    7    2   49   -0.000661    0.000000
    0    0    7    3   49   -0.000369    0.000000
    0    0    7    4   49   -0.000431    0.000000
    0    0    7    5   49    0.000852    0.000000
    0    0    7    6   49   -0.002427    0.000000
    0    0    7    7   49    0.001026   -0.000000
    0    0    7    8   49   -0.001583    0.000000
    0    0    7    9   49    0.001663   -0.000000
    0    0    7   10   49   -0.001949   -0.000000
    0    0    7   11   49   -0.001403    0.000000
    0    0    7   12   49   -0.001830    0.000000
    0    0    7   13   49    0.000934   -0.000000
    0    0    7   14   49    0.000561   -0.000000
    0    0    7   15   49   -0.002227   -0.000000
    0    0    7   16   49    0.000114   -0.000000
    0    0    7   17   49   -0.000920    0.000000
    0    0    7   18   49    0.001050   -0.000000
    0    0    7   19   49   -0.002326    0.000000
    0    0    7   20   49    0.001575    0.000000
    0    0    7   21   49    0.001606   -0.000000
    0    0    7   22   49   -0.015088    0.000000
    0    0    7   23   49   -0.006652   -0.000000
    0    0    7   24   49   -0.006122   -0.000000
    0    0    7   25   49    0.001164   -0.000000
    0    0    7   26   49   -0.009770    0.000000
    0    0    7   27   49   -0.000655   -0.000000
    0    0    7   28   49    0.002086   -0.000000
    0    0    7   29   49   -0.003861   -0.000000
    0    0    7   30   49   -0.006158   -0.000000
    0    0    7   31   49   -0.006298   -0.000000
    0    0    7   32   49   -0.006862   -0.000000
    0    0    7   33   49   -0.006522   -0.000000
    0    0    7   34   49   -0.006307    0.000000
    0    0    7   35   49   -0.011011    0.000000
    0    0    7   36   49   -0.015689    0.000000
    0    0    7   37   49   -0.008212    0.000000
    0    0    7   38   49   -0.007984   -0.000000
    0    0    7   39   49   -0.006807   -0.000000
    0    0    7   40   49    0.010111   -0.000000
    0    0    7   41   49   -0.009835    0.000000
    0    0    7   42   49   -0.001906   -0.000000
    0    0    7   43   49    0.001515   -0.000000
    0    0    7   44   49   -0.003469   -0.000000
    0    0    7   45   49   -0.006728   -0.000000
    0    0    7   46   49   -0.007035   -0.000000
    0    0    7   47   49   -0.007834   -0.000000
    0    0    7   48   49   -0.007458   -0.000000
    0    0    7   49   49   -0.007470    0.000000
    0    0    7   50   49   -0.010894    0.000000
    0    0    7    1   50    0.001089    0.000000
    0    0    7    2   50    0.000013    0.000000
    0    0    7    3   50    0.000724    0.000000
    0    0    7    4   50   -0.000340    0.000000
    0    0    7    5   50    0.001266    0.000000
    0    0    7    6   50   -0.001444    0.000000
    0    0    7    7   50   -0.002744   -0.000000
    0    0    7    8   50    0.003148    0.000000
    0    0    7    9   50    0.001201   -0.000000
    0    0    7   10   50   -0.001168    0.000000
    0    0    7   11   50   -0.001851    0.000000
    0    0    7   12   50   -0.002781    0.000000
    0    0    7   13   50    0.002362    0.000000
    0    0    7   14   50    0.002004    0.000000
    0    0    7   15   50   -0.002855    0.000000
    0    0    7   16   50   -0.001587   -0.000000
    0    0    7   17   50    0.002317    0.000000
    0    0    7   18   50   -0.003004   -0.000000
    0    0    7   19   50    0.001048    0.000000
    0    0    7   20   50    0.003291    0.000000
    0    0    7   21   50   -0.001058   -0.000000
    0    0    7   22   50   -0.021422    0.000000
    0    0    7   23   50   -0.012394   -0.000000
    0    0    7   24   50   -0.012266   -0.000000
    0    0    7   25   50   -0.003529   -0.000000
    0    0    7   26   50   -0.014019    0.000000
    0    0    7   27   50   -0.003814   -0.000000
    0    0    7   28   50   -0.001188   -0.000000
    0    0    7   29   50   -0.008511   -0.000000
    0    0    7   30   50   -0.011545   -0.000000
    0    0    7   31   50   -0.011896   -0.000000
    0    0    7   32   50   -0.012820   -0.000000
    0    0    7   33   50   -0.012059   -0.000000
    0    0    7   34   50   -0.011011   -0.000000
    0    0    7   35   50   -0.015861   -0.000000
    0    0    7   36   50   -0.020353    0.000000
    0    0    7   37   50   -0.012264   -0.000000
    0    0    7   38   50   -0.013140   -0.000000
    0    0    7   39   50   -0.012006   -0.000000
    0    0    7   40   50    0.008701   -0.000000
    0    0    7   41   50   -0.013020    0.000000
    0    0    7   42   50   -0.003654   -0.000000
    0    0    7   43   50   -0.000740   -0.000000
    0    0    7   44   50   -0.007485   -0.000000
    0    0    7   45   50   -0.010882   -0.000000
    0    0    7   46   50   -0.011273   -0.000000
    0    0    7   47   50   -0.012555   -0.000000
    0    0    7   48   50   -0.011689   -0.000000
    0    0    7   49   50   -0.010894   -0.000000
    0    0    7   50   50   -0.014745    0.000000
