 written on 19Sep2022 at 10:59:05 
          30
          15
    2    1    1    1    1    1    1    1    1    1    1    1    1    1    2
    0    0   -7    1    1   -0.000725    0.000000
    0    0   -7    2    1   -0.004069    0.002202
    0    0   -7    3    1    0.000969    0.001939
    0    0   -7    4    1   -0.000829    0.000960
    0    0   -7    5    1   -0.001987    0.001179
    0    0   -7    6    1    0.004766    0.000827
    0    0   -7    7    1    0.001216   -0.001318
    0    0   -7    8    1   -0.002939   -0.000529
    0    0   -7    9    1    0.001926    0.002586
    0    0   -7   10    1   -0.001151   -0.002202
    0    0   -7   11    1    0.000521    0.002008
    0    0   -7   12    1    0.001007    0.001799
    0    0   -7   13    1    0.005872    0.005772
    0    0   -7   14    1    0.014267   -0.001006
    0    0   -7   15    1    0.004386    0.007734
    0    0   -7   16    1    0.008114    0.011353
    0    0   -7   17    1    0.000638    0.000060
    0    0   -7   18    1    0.014699    0.013096
    0    0   -7   19    1    0.004050   -0.003425
    0    0   -7   20    1    0.001250    0.014517
    0    0   -7   21    1    0.001580   -0.003121
    0    0   -7   22    1    0.005966    0.004366
    0    0   -7   23    1    0.008233   -0.001208
    0    0   -7   24    1    0.009264   -0.003448
    0    0   -7   25    1    0.012126    0.010748
    0    0   -7   26    1   -0.011828    0.005870
    0    0   -7   27    1    0.006502    0.014350
    0    0   -7   28    1   -0.005103    0.007197
    0    0   -7   29    1    0.006458    0.009097
    0    0   -7   30    1   -0.009926    0.003652
    0    0   -7    1    2   -0.004069   -0.002202
    0    0   -7    2    2    0.007979   -0.000000
    0    0   -7    3    2    0.005202   -0.000347
    0    0   -7    4    2    0.002075   -0.001039
    0    0   -7    5    2    0.002395   -0.000908
    0    0   -7    6    2    0.003257   -0.001468
    0    0   -7    7    2   -0.002819    0.005019
    0    0   -7    8    2   -0.001839    0.004357
    0    0   -7    9    2   -0.000998    0.005855
    0    0   -7   10    2   -0.004677    0.004787
    0    0   -7   11    2   -0.000670    0.005753
    0    0   -7   12    2   -0.001886    0.005966
    0    0   -7   13    2   -0.008242    0.009381
    0    0   -7   14    2   -0.002946    0.003685
    0    0   -7   15    2   -0.014163    0.010724
    0    0   -7   16    2    0.010498    0.007769
    0    0   -7   17    2   -0.019253   -0.001930
    0    0   -7   18    2    0.004936    0.008112
    0    0   -7   19    2   -0.012000   -0.003533
    0    0   -7   20    2    0.012045    0.008212
    0    0   -7   21    2   -0.010982   -0.001503
    0    0   -7   22    2    0.017582   -0.006780
    0    0   -7   23    2    0.015683   -0.012055
    0    0   -7   24    2    0.010654   -0.013770
    0    0   -7   25    2    0.006108    0.001787
    0    0   -7   26    2    0.018983    0.006976
    0    0   -7   27    2    0.027129    0.008418
    0    0   -7   28    2    0.012531    0.008364
    0    0   -7   29    2    0.015904    0.003040
    0    0   -7   30    2    0.008636    0.002252
    0    0   -7    1    3    0.000969   -0.001939
    0    0   -7    2    3    0.005202    0.000347
    0    0   -7    3    3    0.001550   -0.000000
    0    0   -7    4    3   -0.002251   -0.000803
    0    0   -7    5    3    0.000405   -0.000743
    0    0   -7    6    3    0.002531   -0.000916
    0    0   -7    7    3   -0.001911    0.001594
    0    0   -7    8    3   -0.000752    0.001776
    0    0   -7    9    3    0.000976    0.004205
    0    0   -7   10    3   -0.001325    0.001065
    0    0   -7   11    3   -0.001292    0.003957
    0    0   -7   12    3    0.002112    0.003889
    0    0   -7   13    3    0.010619    0.007527
    0    0   -7   14    3   -0.000997    0.000027
    0    0   -7   15    3    0.002069    0.008729
    0    0   -7   16    3    0.011862    0.010070
    0    0   -7   17    3   -0.011650   -0.000318
    0    0   -7   18    3    0.003471    0.010662
    0    0   -7   19    3   -0.001585   -0.003467
    0    0   -7   20    3    0.012509    0.012816
    0    0   -7   21    3   -0.007449   -0.002595
    0    0   -7   22    3    0.020747   -0.000052
    0    0   -7   23    3    0.003273   -0.005390
    0    0   -7   24    3    0.007637   -0.007819
    0    0   -7   25    3    0.009274    0.008003
    0    0   -7   26    3    0.005418    0.007867
    0    0   -7   27    3    0.029929    0.013030
    0    0   -7   28    3   -0.013975    0.008644
    0    0   -7   29    3    0.009032    0.007279
    0    0   -7   30    3    0.000268    0.005355
    0    0   -7    1    4   -0.000829   -0.000960
    0    0   -7    2    4    0.002075    0.001039
    0    0   -7    3    4   -0.002251    0.000803
    0    0   -7    4    4    0.006947   -0.000000
    0    0   -7    5    4    0.003144    0.000151
    0    0   -7    6    4    0.000980   -0.000262
    0    0   -7    7    4   -0.002316    0.003198
    0    0   -7    8    4   -0.002735    0.002847
    0    0   -7    9    4    0.001554    0.005491
    0    0   -7   10    4   -0.003636    0.002482
    0    0   -7   11    4    0.001090    0.005571
    0    0   -7   12    4   -0.002708    0.005090
    0    0   -7   13    4    0.005944    0.006791
    0    0   -7   14    4   -0.013595    0.000275
    0    0   -7   15    4    0.013020    0.008310
    0    0   -7   16    4    0.009218    0.010903
    0    0   -7   17    4   -0.001854    0.000921
    0    0   -7   18    4   -0.001955    0.012918
    0    0   -7   19    4   -0.003943   -0.003022
    0    0   -7   20    4    0.015224    0.014659
    0    0   -7   21    4    0.001986   -0.003223
    0    0   -7   22    4    0.015042    0.000761
    0    0   -7   23    4    0.012769   -0.004474
    0    0   -7   24    4    0.007451   -0.007574
    0    0   -7   25    4    0.009013    0.010655
    0    0   -7   26    4    0.000766    0.006860
    0    0   -7   27    4    0.018953    0.014224
    0    0   -7   28    4   -0.007248    0.007512
    0    0   -7   29    4    0.010528    0.009570
    0    0   -7   30    4   -0.004245    0.004264
    0    0   -7    1    5   -0.001987   -0.001179
    0    0   -7    2    5    0.002395    0.000908
    0    0   -7    3    5    0.000405    0.000743
    0    0   -7    4    5    0.003144   -0.000151
    0    0   -7    5    5   -0.003140   -0.000000
    0    0   -7    6    5   -0.000130   -0.000518
    0    0   -7    7    5   -0.000892    0.001370
    0    0   -7    8    5   -0.003601    0.001620
    0    0   -7    9    5    0.000395    0.003456
    0    0   -7   10    5   -0.003385    0.001022
    0    0   -7   11    5   -0.000055    0.002941
    0    0   -7   12    5    0.000065    0.003298
    0    0   -7   13    5   -0.003953    0.008983
    0    0   -7   14    5   -0.006551    0.003006
    0    0   -7   15    5    0.001600    0.010564
    0    0   -7   16    5    0.009143    0.007164
    0    0   -7   17    5   -0.005418   -0.001933
    0    0   -7   18    5    0.003409    0.007417
    0    0   -7   19    5   -0.017808   -0.003529
    0    0   -7   20    5    0.019745    0.008258
    0    0   -7   21    5   -0.006101   -0.001116
    0    0   -7   22    5    0.019787   -0.004101
    0    0   -7   23    5    0.018719   -0.009537
    0    0   -7   24    5    0.003237   -0.011397
    0    0   -7   25    5    0.006786    0.000919
    0    0   -7   26    5    0.017526    0.006922
    0    0   -7   27    5    0.012337    0.008248
    0    0   -7   28    5    0.011595    0.007799
    0    0   -7   29    5    0.021427    0.002724
    0    0   -7   30    5    0.000815    0.002335
    0    0   -7    1    6    0.004766   -0.000827
    0    0   -7    2    6    0.003257    0.001468
    0    0   -7    3    6    0.002531    0.000916
    0    0   -7    4    6    0.000980    0.000262
    0    0   -7    5    6   -0.000130    0.000518
    0    0   -7    6    6   -0.000316   -0.000000
    0    0   -7    7    6   -0.001101    0.002021
    0    0   -7    8    6   -0.002260    0.001915
    0    0   -7    9    6   -0.001777    0.004607
    0    0   -7   10    6    0.000591    0.001269
    0    0   -7   11    6    0.000798    0.004452
    0    0   -7   12    6   -0.000897    0.004190
    0    0   -7   13    6    0.005610    0.006266
    0    0   -7   14    6    0.004306    0.000221
    0    0   -7   15    6    0.004523    0.008188
    0    0   -7   16    6    0.011216    0.010102
    0    0   -7   17    6   -0.000033   -0.000789
    0    0   -7   18    6    0.007334    0.011962
    0    0   -7   19    6   -0.009703   -0.003698
    0    0   -7   20    6    0.011417    0.012512
    0    0   -7   21    6   -0.004290   -0.002183
    0    0   -7   22    6    0.016023    0.000629
    0    0   -7   23    6    0.001746   -0.004993
    0    0   -7   24    6    0.007421   -0.007180
    0    0   -7   25    6    0.008609    0.006810
    0    0   -7   26    6    0.006083    0.006461
    0    0   -7   27    6    0.012983    0.012225
    0    0   -7   28    6   -0.009163    0.007822
    0    0   -7   29    6    0.007482    0.007311
    0    0   -7   30    6   -0.004962    0.002901
    0    0   -7    1    7    0.001216    0.001318
    0    0   -7    2    7   -0.002819   -0.005019
    0    0   -7    3    7   -0.001911   -0.001594
    0    0   -7    4    7   -0.002316   -0.003198
    0    0   -7    5    7   -0.000892   -0.001370
    0    0   -7    6    7   -0.001101   -0.002021
    0    0   -7    7    7    0.000291    0.000000
    0    0   -7    8    7   -0.003160    0.000746
    0    0   -7    9    7   -0.000305    0.001471
    0    0   -7   10    7    0.002675   -0.000187
    0    0   -7   11    7    0.002532    0.001231
    0    0   -7   12    7    0.001531    0.001629
    0    0   -7   13    7    0.017703    0.018507
    0    0   -7   14    7    0.024604    0.027904
    0    0   -7   15    7    0.014297    0.016983
    0    0   -7   16    7    0.008361    0.000321
    0    0   -7   17    7    0.006048    0.022836
    0    0   -7   18    7    0.025276    0.018015
    0    0   -7   19    7    0.013580    0.020862
    0    0   -7   20    7    0.005029    0.004600
    0    0   -7   21    7   -0.000401    0.008465
    0    0   -7   22    7    0.007531   -0.007174
    0    0   -7   23    7    0.003416   -0.007581
    0    0   -7   24    7    0.008100   -0.008010
    0    0   -7   25    7    0.011526    0.008346
    0    0   -7   26    7   -0.011842   -0.019328
    0    0   -7   27    7    0.009558   -0.010614
    0    0   -7   28    7   -0.001945   -0.015152
    0    0   -7   29    7    0.006597    0.001127
    0    0   -7   30    7   -0.007932   -0.007170
    0    0   -7    1    8   -0.002939    0.000529
    0    0   -7    2    8   -0.001839   -0.004357
    0    0   -7    3    8   -0.000752   -0.001776
    0    0   -7    4    8   -0.002735   -0.002847
    0    0   -7    5    8   -0.003601   -0.001620
    0    0   -7    6    8   -0.002260   -0.001915
    0    0   -7    7    8   -0.003160   -0.000746
    0    0   -7    8    8   -0.001880    0.000000
    0    0   -7    9    8    0.001813    0.000896
    0    0   -7   10    8   -0.005421   -0.001006
    0    0   -7   11    8   -0.000598    0.000725
    0    0   -7   12    8   -0.001212    0.000905
    0    0   -7   13    8    0.011572    0.016761
    0    0   -7   14    8    0.016974    0.021833
    0    0   -7   15    8    0.017750    0.016051
    0    0   -7   16    8    0.006627    0.003536
    0    0   -7   17    8   -0.003872    0.017983
    0    0   -7   18    8    0.026489    0.016515
    0    0   -7   19    8    0.016725    0.016053
    0    0   -7   20    8    0.023112    0.007134
    0    0   -7   21    8    0.001499    0.007433
    0    0   -7   22    8    0.003363   -0.004308
    0    0   -7   23    8    0.022886   -0.005285
    0    0   -7   24    8    0.003479   -0.006666
    0    0   -7   25    8    0.010115    0.007356
    0    0   -7   26    8   -0.020578   -0.013465
    0    0   -7   27    8    0.011820   -0.005638
    0    0   -7   28    8    0.002722   -0.010230
    0    0   -7   29    8    0.019044    0.002026
    0    0   -7   30    8   -0.008131   -0.005341
    0    0   -7    1    9    0.001926   -0.002586
    0    0   -7    2    9   -0.000998   -0.005855
    0    0   -7    3    9    0.000976   -0.004205
    0    0   -7    4    9    0.001554   -0.005491
    0    0   -7    5    9    0.000395   -0.003456
    0    0   -7    6    9   -0.001777   -0.004607
    0    0   -7    7    9   -0.000305   -0.001471
    0    0   -7    8    9    0.001813   -0.000896
    0    0   -7    9    9    0.000957   -0.000000
    0    0   -7   10    9   -0.001821   -0.001759
    0    0   -7   11    9    0.003609    0.000024
    0    0   -7   12    9    0.002135    0.000136
    0    0   -7   13    9    0.017583    0.015254
    0    0   -7   14    9    0.014340    0.020595
    0    0   -7   15    9    0.009853    0.015677
    0    0   -7   16    9    0.020787    0.004161
    0    0   -7   17    9    0.019320    0.016718
    0    0   -7   18    9    0.027128    0.015902
    0    0   -7   19    9   -0.000764    0.014908
    0    0   -7   20    9    0.021071    0.007329
    0    0   -7   21    9   -0.000562    0.007920
    0    0   -7   22    9    0.027941   -0.003626
    0    0   -7   23    9    0.009628   -0.004242
    0    0   -7   24    9    0.007111   -0.006570
    0    0   -7   25    9    0.025390    0.006313
    0    0   -7   26    9   -0.005777   -0.012087
    0    0   -7   27    9    0.014537   -0.005478
    0    0   -7   28    9   -0.003737   -0.008980
    0    0   -7   29    9    0.017252    0.002534
    0    0   -7   30    9   -0.010657   -0.006174
    0    0   -7    1   10   -0.001151    0.002202
    0    0   -7    2   10   -0.004677   -0.004787
    0    0   -7    3   10   -0.001325   -0.001065
    0    0   -7    4   10   -0.003636   -0.002482
    0    0   -7    5   10   -0.003385   -0.001022
    0    0   -7    6   10    0.000591   -0.001269
    0    0   -7    7   10    0.002675    0.000187
    0    0   -7    8   10   -0.005421    0.001006
    0    0   -7    9   10   -0.001821    0.001759
    0    0   -7   10   10    0.001573    0.000000
    0    0   -7   11   10    0.000523    0.001520
    0    0   -7   12   10    0.000119    0.001785
    0    0   -7   13   10    0.022912    0.019627
    0    0   -7   14   10    0.022364    0.028696
    0    0   -7   15   10    0.012992    0.017929
    0    0   -7   16   10    0.007455    0.000317
    0    0   -7   17   10    0.015630    0.023594
    0    0   -7   18   10    0.012003    0.018115
    0    0   -7   19   10    0.006734    0.021429
    0    0   -7   20   10    0.000773    0.004840
    0    0   -7   21   10    0.003031    0.009312
    0    0   -7   22   10    0.007103   -0.007055
    0    0   -7   23   10   -0.011677   -0.007562
    0    0   -7   24   10    0.004183   -0.008200
    0    0   -7   25   10    0.012665    0.008449
    0    0   -7   26   10   -0.008417   -0.018982
    0    0   -7   27   10    0.000061   -0.010707
    0    0   -7   28   10   -0.010878   -0.014722
    0    0   -7   29   10    0.001776    0.001071
    0    0   -7   30   10    0.000841   -0.006370
    0    0   -7    1   11    0.000521   -0.002008
    0    0   -7    2   11   -0.000670   -0.005753
    0    0   -7    3   11   -0.001292   -0.003957
    0    0   -7    4   11    0.001090   -0.005571
    0    0   -7    5   11   -0.000055   -0.002941
    0    0   -7    6   11    0.000798   -0.004452
    0    0   -7    7   11    0.002532   -0.001231
    0    0   -7    8   11   -0.000598   -0.000725
    0    0   -7    9   11    0.003609   -0.000024
    0    0   -7   10   11    0.000523   -0.001520
    0    0   -7   11   11    0.004131   -0.000000
    0    0   -7   12   11   -0.001066    0.000158
    0    0   -7   13   11    0.008524    0.016694
    0    0   -7   14   11    0.016694    0.023861
    0    0   -7   15   11    0.016869    0.017279
    0    0   -7   16   11   -0.001899    0.002732
    0    0   -7   17   11    0.010522    0.020328
    0    0   -7   18   11    0.029266    0.016813
    0    0   -7   19   11    0.010014    0.017457
    0    0   -7   20   11    0.019860    0.007009
    0    0   -7   21   11    0.002003    0.008787
    0    0   -7   22   11    0.012973   -0.005031
    0    0   -7   23   11    0.005866   -0.005010
    0    0   -7   24   11    0.000208   -0.008215
    0    0   -7   25   11    0.009110    0.006470
    0    0   -7   26   11   -0.016262   -0.014098
    0    0   -7   27   11    0.021502   -0.007974
    0    0   -7   28   11   -0.011586   -0.010900
    0    0   -7   29   11    0.010395    0.002385
    0    0   -7   30   11   -0.000953   -0.007198
    0    0   -7    1   12    0.001007   -0.001799
    0    0   -7    2   12   -0.001886   -0.005966
    0    0   -7    3   12    0.002112   -0.003889
    0    0   -7    4   12   -0.002708   -0.005090
    0    0   -7    5   12    0.000065   -0.003298
    0    0   -7    6   12   -0.000897   -0.004190
    0    0   -7    7   12    0.001531   -0.001629
    0    0   -7    8   12   -0.001212   -0.000905
    0    0   -7    9   12    0.002135   -0.000136
    0    0   -7   10   12    0.000119   -0.001785
    0    0   -7   11   12   -0.001066   -0.000158
    0    0   -7   12   12    0.001652    0.000000
    0    0   -7   13   12    0.012216    0.017035
    0    0   -7   14   12    0.012894    0.022323
    0    0   -7   15   12    0.008826    0.017726
    0    0   -7   16   12    0.015559    0.004513
    0    0   -7   17   12    0.016783    0.018370
    0    0   -7   18   12    0.027482    0.016990
    0    0   -7   19   12    0.001739    0.015900
    0    0   -7   20   12    0.012832    0.007722
    0    0   -7   21   12   -0.005848    0.008630
    0    0   -7   22   12    0.023593   -0.003569
    0    0   -7   23   12    0.002224   -0.004426
    0    0   -7   24   12    0.001445   -0.007419
    0    0   -7   25   12    0.020686    0.006723
    0    0   -7   26   12   -0.006321   -0.012165
    0    0   -7   27   12    0.021652   -0.005760
    0    0   -7   28   12   -0.010539   -0.009099
    0    0   -7   29   12    0.006874    0.002728
    0    0   -7   30   12   -0.013034   -0.006224
    0    0   -7    1   13    0.005872   -0.005772
    0    0   -7    2   13   -0.008242   -0.009381
    0    0   -7    3   13    0.010619   -0.007527
    0    0   -7    4   13    0.005944   -0.006791
    0    0   -7    5   13   -0.003953   -0.008983
    0    0   -7    6   13    0.005610   -0.006266
    0    0   -7    7   13    0.017703   -0.018507
    0    0   -7    8   13    0.011572   -0.016761
    0    0   -7    9   13    0.017583   -0.015254
    0    0   -7   10   13    0.022912   -0.019627
    0    0   -7   11   13    0.008524   -0.016694
    0    0   -7   12   13    0.012216   -0.017035
    0    0   -7   13   13   -0.010624   -0.000000
    0    0   -7   14   13   -0.078708   -0.002961
    0    0   -7   15   13   -0.014505   -0.001090
    0    0   -7   16   13   -0.030392    0.004350
    0    0   -7   17   13   -0.010945    0.003025
    0    0   -7   18   13   -0.048576    0.008921
    0    0   -7   19   13   -0.040605    0.003433
    0    0   -7   20   13    0.079166    0.008074
    0    0   -7   21   13   -0.039017   -0.003606
    0    0   -7   22   13    0.015095    0.020926
    0    0   -7   23   13   -0.044621    0.019485
    0    0   -7   24   13    0.018217    0.014486
    0    0   -7   25   13   -0.026906    0.007351
    0    0   -7   26   13    0.028042   -0.001089
    0    0   -7   27   13    0.013689    0.002958
    0    0   -7   28   13   -0.034221   -0.000476
    0    0   -7   29   13   -0.018785    0.004163
    0    0   -7   30   13    0.101344    0.006062
    0    0   -7    1   14    0.014267    0.001006
    0    0   -7    2   14   -0.002946   -0.003685
    0    0   -7    3   14   -0.000997   -0.000027
    0    0   -7    4   14   -0.013595   -0.000275
    0    0   -7    5   14   -0.006551   -0.003006
    0    0   -7    6   14    0.004306   -0.000221
    0    0   -7    7   14    0.024604   -0.027904
    0    0   -7    8   14    0.016974   -0.021833
    0    0   -7    9   14    0.014340   -0.020595
    0    0   -7   10   14    0.022364   -0.028696
    0    0   -7   11   14    0.016694   -0.023861
    0    0   -7   12   14    0.012894   -0.022323
    0    0   -7   13   14   -0.078708    0.002961
    0    0   -7   14   14    0.014485   -0.000000
    0    0   -7   15   14   -0.096961    0.000572
    0    0   -7   16   14   -0.011882    0.001607
    0    0   -7   17   14    0.008615    0.002109
    0    0   -7   18   14    0.032773   -0.001197
    0    0   -7   19   14   -0.005678    0.001981
    0    0   -7   20   14   -0.020436    0.002091
    0    0   -7   21   14   -0.064076   -0.002525
    0    0   -7   22   14   -0.021325    0.017627
    0    0   -7   23   14   -0.009877    0.020878
    0    0   -7   24   14    0.019426    0.019144
    0    0   -7   25   14    0.024546    0.007573
    0    0   -7   26   14    0.018333    0.000700
    0    0   -7   27   14   -0.088450   -0.002902
    0    0   -7   28   14    0.026868    0.000682
    0    0   -7   29   14   -0.036649    0.001995
    0    0   -7   30   14    0.041991    0.009254
    0    0   -7    1   15    0.004386   -0.007734
    0    0   -7    2   15   -0.014163   -0.010724
    0    0   -7    3   15    0.002069   -0.008729
    0    0   -7    4   15    0.013020   -0.008310
    0    0   -7    5   15    0.001600   -0.010564
    0    0   -7    6   15    0.004523   -0.008188
    0    0   -7    7   15    0.014297   -0.016983
    0    0   -7    8   15    0.017750   -0.016051
    0    0   -7    9   15    0.009853   -0.015677
    0    0   -7   10   15    0.012992   -0.017929
    0    0   -7   11   15    0.016869   -0.017279
    0    0   -7   12   15    0.008826   -0.017726
    0    0   -7   13   15   -0.014505    0.001090
    0    0   -7   14   15   -0.096961   -0.000572
    0    0   -7   15   15   -0.098932   -0.000000
    0    0   -7   16   15    0.008722    0.006414
    0    0   -7   17   15   -0.066653   -0.000032
    0    0   -7   18   15    0.025681    0.008307
    0    0   -7   19   15   -0.008509    0.001504
    0    0   -7   20   15   -0.035893    0.006817
    0    0   -7   21   15   -0.010539   -0.008529
    0    0   -7   22   15   -0.002431    0.016806
    0    0   -7   23   15    0.024928    0.016327
    0    0   -7   24   15    0.001006    0.013295
    0    0   -7   25   15   -0.062560    0.010930
    0    0   -7   26   15   -0.012624   -0.001141
    0    0   -7   27   15    0.039446    0.003489
    0    0   -7   28   15    0.064536   -0.000299
    0    0   -7   29   15   -0.021519    0.003098
    0    0   -7   30   15    0.036896    0.004282
    0    0   -7    1   16    0.008114   -0.011353
    0    0   -7    2   16    0.010498   -0.007769
    0    0   -7    3   16    0.011862   -0.010070
    0    0   -7    4   16    0.009218   -0.010903
    0    0   -7    5   16    0.009143   -0.007164
    0    0   -7    6   16    0.011216   -0.010102
    0    0   -7    7   16    0.008361   -0.000321
    0    0   -7    8   16    0.006627   -0.003536
    0    0   -7    9   16    0.020787   -0.004161
    0    0   -7   10   16    0.007455   -0.000317
    0    0   -7   11   16   -0.001899   -0.002732
    0    0   -7   12   16    0.015559   -0.004513
    0    0   -7   13   16   -0.030392   -0.004350
    0    0   -7   14   16   -0.011882   -0.001607
    0    0   -7   15   16    0.008722   -0.006414
    0    0   -7   16   16    0.025657   -0.000000
    0    0   -7   17   16   -0.023953    0.001847
    0    0   -7   18   16    0.036837    0.006780
    0    0   -7   19   16    0.020804    0.000817
    0    0   -7   20   16   -0.025368   -0.001099
    0    0   -7   21   16   -0.063039    0.000804
    0    0   -7   22   16   -0.015539    0.003338
    0    0   -7   23   16   -0.071315    0.005771
    0    0   -7   24   16    0.003804    0.000257
    0    0   -7   25   16    0.050683    0.000627
    0    0   -7   26   16   -0.053906   -0.004050
    0    0   -7   27   16   -0.009647    0.003403
    0    0   -7   28   16    0.029886   -0.002912
    0    0   -7   29   16   -0.029811    0.002926
    0    0   -7   30   16   -0.037255   -0.009112
    0    0   -7    1   17    0.000638   -0.000060
    0    0   -7    2   17   -0.019253    0.001930
    0    0   -7    3   17   -0.011650    0.000318
    0    0   -7    4   17   -0.001854   -0.000921
    0    0   -7    5   17   -0.005418    0.001933
    0    0   -7    6   17   -0.000033    0.000789
    0    0   -7    7   17    0.006048   -0.022836
    0    0   -7    8   17   -0.003872   -0.017983
    0    0   -7    9   17    0.019320   -0.016718
    0    0   -7   10   17    0.015630   -0.023594
    0    0   -7   11   17    0.010522   -0.020328
    0    0   -7   12   17    0.016783   -0.018370
    0    0   -7   13   17   -0.010945   -0.003025
    0    0   -7   14   17    0.008615   -0.002109
    0    0   -7   15   17   -0.066653    0.000032
    0    0   -7   16   17   -0.023953   -0.001847
    0    0   -7   17   17    0.016996    0.000000
    0    0   -7   18   17    0.022031   -0.003885
    0    0   -7   19   17    0.012130    0.002275
    0    0   -7   20   17    0.022827   -0.002258
    0    0   -7   21   17    0.019579   -0.001813
    0    0   -7   22   17    0.040727    0.009561
    0    0   -7   23   17   -0.066590    0.009209
    0    0   -7   24   17   -0.014366    0.010534
    0    0   -7   25   17   -0.059701   -0.001526
    0    0   -7   26   17    0.040749   -0.002721
    0    0   -7   27   17    0.045086   -0.005647
    0    0   -7   28   17   -0.032889    0.000511
    0    0   -7   29   17   -0.037252   -0.005569
    0    0   -7   30   17    0.003270    0.001541
    0    0   -7    1   18    0.014699   -0.013096
    0    0   -7    2   18    0.004936   -0.008112
    0    0   -7    3   18    0.003471   -0.010662
    0    0   -7    4   18   -0.001955   -0.012918
    0    0   -7    5   18    0.003409   -0.007417
    0    0   -7    6   18    0.007334   -0.011962
    0    0   -7    7   18    0.025276   -0.018015
    0    0   -7    8   18    0.026489   -0.016515
    0    0   -7    9   18    0.027128   -0.015902
    0    0   -7   10   18    0.012003   -0.018115
    0    0   -7   11   18    0.029266   -0.016813
    0    0   -7   12   18    0.027482   -0.016990
    0    0   -7   13   18   -0.048576   -0.008921
    0    0   -7   14   18    0.032773    0.001197
    0    0   -7   15   18    0.025681   -0.008307
    0    0   -7   16   18    0.036837   -0.006780
    0    0   -7   17   18    0.022031    0.003885
    0    0   -7   18   18   -0.009805   -0.000000
    0    0   -7   19   18    0.015007   -0.000078
    0    0   -7   20   18    0.018957   -0.003770
    0    0   -7   21   18    0.036059   -0.001711
    0    0   -7   22   18   -0.035117    0.010744
    0    0   -7   23   18   -0.002656    0.013351
    0    0   -7   24   18   -0.045606    0.009990
    0    0   -7   25   18    0.026982   -0.000908
    0    0   -7   26   18    0.021957   -0.003522
    0    0   -7   27   18   -0.099110   -0.007328
    0    0   -7   28   18   -0.027795   -0.005699
    0    0   -7   29   18   -0.003263    0.001765
    0    0   -7   30   18    0.040959   -0.004756
    0    0   -7    1   19    0.004050    0.003425
    0    0   -7    2   19   -0.012000    0.003533
    0    0   -7    3   19   -0.001585    0.003467
    0    0   -7    4   19   -0.003943    0.003022
    0    0   -7    5   19   -0.017808    0.003529
    0    0   -7    6   19   -0.009703    0.003698
    0    0   -7    7   19    0.013580   -0.020862
    0    0   -7    8   19    0.016725   -0.016053
    0    0   -7    9   19   -0.000764   -0.014908
    0    0   -7   10   19    0.006734   -0.021429
    0    0   -7   11   19    0.010014   -0.017457
    0    0   -7   12   19    0.001739   -0.015900
    0    0   -7   13   19   -0.040605   -0.003433
    0    0   -7   14   19   -0.005678   -0.001981
    0    0   -7   15   19   -0.008509   -0.001504
    0    0   -7   16   19    0.020804   -0.000817
    0    0   -7   17   19    0.012130   -0.002275
    0    0   -7   18   19    0.015007    0.000078
    0    0   -7   19   19   -0.003086    0.000000
    0    0   -7   20   19    0.026426   -0.003060
    0    0   -7   21   19    0.025891   -0.001336
    0    0   -7   22   19   -0.030688    0.012283
    0    0   -7   23   19    0.031046    0.013104
    0    0   -7   24   19    0.069808    0.010802
    0    0   -7   25   19    0.004303    0.000432
    0    0   -7   26   19   -0.040728   -0.003932
    0    0   -7   27   19   -0.018452   -0.001438
    0    0   -7   28   19    0.044194   -0.001418
    0    0   -7   29   19    0.020734   -0.000485
    0    0   -7   30   19    0.005608   -0.003795
    0    0   -7    1   20    0.001250   -0.014517
    0    0   -7    2   20    0.012045   -0.008212
    0    0   -7    3   20    0.012509   -0.012816
    0    0   -7    4   20    0.015224   -0.014659
    0    0   -7    5   20    0.019745   -0.008258
    0    0   -7    6   20    0.011417   -0.012512
    0    0   -7    7   20    0.005029   -0.004600
    0    0   -7    8   20    0.023112   -0.007134
    0    0   -7    9   20    0.021071   -0.007329
    0    0   -7   10   20    0.000773   -0.004840
    0    0   -7   11   20    0.019860   -0.007009
    0    0   -7   12   20    0.012832   -0.007722
    0    0   -7   13   20    0.079166   -0.008074
    0    0   -7   14   20   -0.020436   -0.002091
    0    0   -7   15   20   -0.035893   -0.006817
    0    0   -7   16   20   -0.025368    0.001099
    0    0   -7   17   20    0.022827    0.002258
    0    0   -7   18   20    0.018957    0.003770
    0    0   -7   19   20    0.026426    0.003060
    0    0   -7   20   20   -0.002860   -0.000000
    0    0   -7   21   20   -0.034255   -0.000207
    0    0   -7   22   20   -0.075104    0.003464
    0    0   -7   23   20    0.006052    0.003754
    0    0   -7   24   20   -0.092355    0.000678
    0    0   -7   25   20   -0.055096   -0.002428
    0    0   -7   26   20    0.009310   -0.001788
    0    0   -7   27   20    0.010916   -0.000625
    0    0   -7   28   20    0.001112   -0.003163
    0    0   -7   29   20   -0.019663    0.001585
    0    0   -7   30   20   -0.020173   -0.008658
    0    0   -7    1   21    0.001580    0.003121
    0    0   -7    2   21   -0.010982    0.001503
    0    0   -7    3   21   -0.007449    0.002595
    0    0   -7    4   21    0.001986    0.003223
    0    0   -7    5   21   -0.006101    0.001116
    0    0   -7    6   21   -0.004290    0.002183
    0    0   -7    7   21   -0.000401   -0.008465
    0    0   -7    8   21    0.001499   -0.007433
    0    0   -7    9   21   -0.000562   -0.007920
    0    0   -7   10   21    0.003031   -0.009312
    0    0   -7   11   21    0.002003   -0.008787
    0    0   -7   12   21   -0.005848   -0.008630
    0    0   -7   13   21   -0.039017    0.003606
    0    0   -7   14   21   -0.064076    0.002525
    0    0   -7   15   21   -0.010539    0.008529
    0    0   -7   16   21   -0.063039   -0.000804
    0    0   -7   17   21    0.019579    0.001813
    0    0   -7   18   21    0.036059    0.001711
    0    0   -7   19   21    0.025891    0.001336
    0    0   -7   20   21   -0.034255    0.000207
    0    0   -7   21   21    0.017866    0.000000
    0    0   -7   22   21    0.052031    0.003282
    0    0   -7   23   21    0.034263    0.004552
    0    0   -7   24   21   -0.030752   -0.001497
    0    0   -7   25   21   -0.024533    0.000030
    0    0   -7   26   21    0.025791    0.000979
    0    0   -7   27   21   -0.009385   -0.001344
    0    0   -7   28   21    0.039049    0.005089
    0    0   -7   29   21    0.027142   -0.000045
    0    0   -7   30   21    0.007386   -0.002142
    0    0   -7    1   22    0.005966   -0.004366
    0    0   -7    2   22    0.017582    0.006780
    0    0   -7    3   22    0.020747    0.000052
    0    0   -7    4   22    0.015042   -0.000761
    0    0   -7    5   22    0.019787    0.004101
    0    0   -7    6   22    0.016023   -0.000629
    0    0   -7    7   22    0.007531    0.007174
    0    0   -7    8   22    0.003363    0.004308
    0    0   -7    9   22    0.027941    0.003626
    0    0   -7   10   22    0.007103    0.007055
    0    0   -7   11   22    0.012973    0.005031
    0    0   -7   12   22    0.023593    0.003569
    0    0   -7   13   22    0.015095   -0.020926
    0    0   -7   14   22   -0.021325   -0.017627
    0    0   -7   15   22   -0.002431   -0.016806
    0    0   -7   16   22   -0.015539   -0.003338
    0    0   -7   17   22    0.040727   -0.009561
    0    0   -7   18   22   -0.035117   -0.010744
    0    0   -7   19   22   -0.030688   -0.012283
    0    0   -7   20   22   -0.075104   -0.003464
    0    0   -7   21   22    0.052031   -0.003282
    0    0   -7   22   22    0.004219    0.000000
    0    0   -7   23   22   -0.121227    0.001234
    0    0   -7   24   22   -0.058935   -0.000781
    0    0   -7   25   22   -0.007933   -0.009006
    0    0   -7   26   22    0.023817    0.013326
    0    0   -7   27   22    0.011840    0.002189
    0    0   -7   28   22   -0.019940    0.008803
    0    0   -7   29   22   -0.073305    0.001394
    0    0   -7   30   22    0.037775   -0.001136
    0    0   -7    1   23    0.008233    0.001208
    0    0   -7    2   23    0.015683    0.012055
    0    0   -7    3   23    0.003273    0.005390
    0    0   -7    4   23    0.012769    0.004474
    0    0   -7    5   23    0.018719    0.009537
    0    0   -7    6   23    0.001746    0.004993
    0    0   -7    7   23    0.003416    0.007581
    0    0   -7    8   23    0.022886    0.005285
    0    0   -7    9   23    0.009628    0.004242
    0    0   -7   10   23   -0.011677    0.007562
    0    0   -7   11   23    0.005866    0.005010
    0    0   -7   12   23    0.002224    0.004426
    0    0   -7   13   23   -0.044621   -0.019485
    0    0   -7   14   23   -0.009877   -0.020878
    0    0   -7   15   23    0.024928   -0.016327
    0    0   -7   16   23   -0.071315   -0.005771
    0    0   -7   17   23   -0.066590   -0.009209
    0    0   -7   18   23   -0.002656   -0.013351
    0    0   -7   19   23    0.031046   -0.013104
    0    0   -7   20   23    0.006052   -0.003754
    0    0   -7   21   23    0.034263   -0.004552
    0    0   -7   22   23   -0.121227   -0.001234
    0    0   -7   23   23   -0.026109    0.000000
    0    0   -7   24   23   -0.038123   -0.002594
    0    0   -7   25   23   -0.073389   -0.012507
    0    0   -7   26   23   -0.030838    0.014039
    0    0   -7   27   23    0.018954    0.003298
    0    0   -7   28   23    0.003669    0.008177
    0    0   -7   29   23   -0.010163   -0.001968
    0    0   -7   30   23    0.010248    0.000113
    0    0   -7    1   24    0.009264    0.003448
    0    0   -7    2   24    0.010654    0.013770
    0    0   -7    3   24    0.007637    0.007819
    0    0   -7    4   24    0.007451    0.007574
    0    0   -7    5   24    0.003237    0.011397
    0    0   -7    6   24    0.007421    0.007180
    0    0   -7    7   24    0.008100    0.008010
    0    0   -7    8   24    0.003479    0.006666
    0    0   -7    9   24    0.007111    0.006570
    0    0   -7   10   24    0.004183    0.008200
    0    0   -7   11   24    0.000208    0.008215
    0    0   -7   12   24    0.001445    0.007419
    0    0   -7   13   24    0.018217   -0.014486
    0    0   -7   14   24    0.019426   -0.019144
    0    0   -7   15   24    0.001006   -0.013295
    0    0   -7   16   24    0.003804   -0.000257
    0    0   -7   17   24   -0.014366   -0.010534
    0    0   -7   18   24   -0.045606   -0.009990
    0    0   -7   19   24    0.069808   -0.010802
    0    0   -7   20   24   -0.092355   -0.000678
    0    0   -7   21   24   -0.030752    0.001497
    0    0   -7   22   24   -0.058935    0.000781
    0    0   -7   23   24   -0.038123    0.002594
    0    0   -7   24   24   -0.004482    0.000000
    0    0   -7   25   24    0.021267   -0.012569
    0    0   -7   26   24    0.012680    0.018738
    0    0   -7   27   24   -0.088054    0.007475
    0    0   -7   28   24    0.071055    0.015145
    0    0   -7   29   24   -0.012704   -0.002777
    0    0   -7   30   24    0.011657    0.002367
    0    0   -7    1   25    0.012126   -0.010748
    0    0   -7    2   25    0.006108   -0.001787
    0    0   -7    3   25    0.009274   -0.008003
    0    0   -7    4   25    0.009013   -0.010655
    0    0   -7    5   25    0.006786   -0.000919
    0    0   -7    6   25    0.008609   -0.006810
    0    0   -7    7   25    0.011526   -0.008346
    0    0   -7    8   25    0.010115   -0.007356
    0    0   -7    9   25    0.025390   -0.006313
    0    0   -7   10   25    0.012665   -0.008449
    0    0   -7   11   25    0.009110   -0.006470
    0    0   -7   12   25    0.020686   -0.006723
    0    0   -7   13   25   -0.026906   -0.007351
    0    0   -7   14   25    0.024546   -0.007573
    0    0   -7   15   25   -0.062560   -0.010930
    0    0   -7   16   25    0.050683   -0.000627
    0    0   -7   17   25   -0.059701    0.001526
    0    0   -7   18   25    0.026982    0.000908
    0    0   -7   19   25    0.004303   -0.000432
    0    0   -7   20   25   -0.055096    0.002428
    0    0   -7   21   25   -0.024533   -0.000030
    0    0   -7   22   25   -0.007933    0.009006
    0    0   -7   23   25   -0.073389    0.012507
    0    0   -7   24   25    0.021267    0.012569
    0    0   -7   25   25    0.012868    0.000000
    0    0   -7   26   25    0.024770   -0.005991
    0    0   -7   27   25   -0.001057   -0.000312
    0    0   -7   28   25   -0.003436   -0.005587
    0    0   -7   29   25    0.049135   -0.002798
    0    0   -7   30   25   -0.001705   -0.003793
    0    0   -7    1   26   -0.011828   -0.005870
    0    0   -7    2   26    0.018983   -0.006976
    0    0   -7    3   26    0.005418   -0.007867
    0    0   -7    4   26    0.000766   -0.006860
    0    0   -7    5   26    0.017526   -0.006922
    0    0   -7    6   26    0.006083   -0.006461
    0    0   -7    7   26   -0.011842    0.019328
    0    0   -7    8   26   -0.020578    0.013465
    0    0   -7    9   26   -0.005777    0.012087
    0    0   -7   10   26   -0.008417    0.018982
    0    0   -7   11   26   -0.016262    0.014098
    0    0   -7   12   26   -0.006321    0.012165
    0    0   -7   13   26    0.028042    0.001089
    0    0   -7   14   26    0.018333   -0.000700
    0    0   -7   15   26   -0.012624    0.001141
    0    0   -7   16   26   -0.053906    0.004050
    0    0   -7   17   26    0.040749    0.002721
    0    0   -7   18   26    0.021957    0.003522
    0    0   -7   19   26   -0.040728    0.003932
    0    0   -7   20   26    0.009310    0.001788
    0    0   -7   21   26    0.025791   -0.000979
    0    0   -7   22   26    0.023817   -0.013326
    0    0   -7   23   26   -0.030838   -0.014039
    0    0   -7   24   26    0.012680   -0.018738
    0    0   -7   25   26    0.024770    0.005991
    0    0   -7   26   26   -0.037083   -0.000000
    0    0   -7   27   26    0.020105    0.004726
    0    0   -7   28   26    0.044309    0.000358
    0    0   -7   29   26    0.026004    0.005918
    0    0   -7   30   26    0.014476   -0.003655
    0    0   -7    1   27    0.006502   -0.014350
    0    0   -7    2   27    0.027129   -0.008418
    0    0   -7    3   27    0.029929   -0.013030
    0    0   -7    4   27    0.018953   -0.014224
    0    0   -7    5   27    0.012337   -0.008248
    0    0   -7    6   27    0.012983   -0.012225
    0    0   -7    7   27    0.009558    0.010614
    0    0   -7    8   27    0.011820    0.005638
    0    0   -7    9   27    0.014537    0.005478
    0    0   -7   10   27    0.000061    0.010707
    0    0   -7   11   27    0.021502    0.007974
    0    0   -7   12   27    0.021652    0.005760
    0    0   -7   13   27    0.013689   -0.002958
    0    0   -7   14   27   -0.088450    0.002902
    0    0   -7   15   27    0.039446   -0.003489
    0    0   -7   16   27   -0.009647   -0.003403
    0    0   -7   17   27    0.045086    0.005647
    0    0   -7   18   27   -0.099110    0.007328
    0    0   -7   19   27   -0.018452    0.001438
    0    0   -7   20   27    0.010916    0.000625
    0    0   -7   21   27   -0.009385    0.001344
    0    0   -7   22   27    0.011840   -0.002189
    0    0   -7   23   27    0.018954   -0.003298
    0    0   -7   24   27   -0.088054   -0.007475
    0    0   -7   25   27   -0.001057    0.000312
    0    0   -7   26   27    0.020105   -0.004726
    0    0   -7   27   27    0.037762    0.000000
    0    0   -7   28   27    0.012746   -0.004778
    0    0   -7   29   27    0.011284    0.004447
    0    0   -7   30   27   -0.012319   -0.009000
    0    0   -7    1   28   -0.005103   -0.007197
    0    0   -7    2   28    0.012531   -0.008364
    0    0   -7    3   28   -0.013975   -0.008644
    0    0   -7    4   28   -0.007248   -0.007512
    0    0   -7    5   28    0.011595   -0.007799
    0    0   -7    6   28   -0.009163   -0.007822
    0    0   -7    7   28   -0.001945    0.015152
    0    0   -7    8   28    0.002722    0.010230
    0    0   -7    9   28   -0.003737    0.008980
    0    0   -7   10   28   -0.010878    0.014722
    0    0   -7   11   28   -0.011586    0.010900
    0    0   -7   12   28   -0.010539    0.009099
    0    0   -7   13   28   -0.034221    0.000476
    0    0   -7   14   28    0.026868   -0.000682
    0    0   -7   15   28    0.064536    0.000299
    0    0   -7   16   28    0.029886    0.002912
    0    0   -7   17   28   -0.032889   -0.000511
    0    0   -7   18   28   -0.027795    0.005699
    0    0   -7   19   28    0.044194    0.001418
    0    0   -7   20   28    0.001112    0.003163
    0    0   -7   21   28    0.039049   -0.005089
    0    0   -7   22   28   -0.019940   -0.008803
    0    0   -7   23   28    0.003669   -0.008177
    0    0   -7   24   28    0.071055   -0.015145
    0    0   -7   25   28   -0.003436    0.005587
    0    0   -7   26   28    0.044309   -0.000358
    0    0   -7   27   28    0.012746    0.004778
    0    0   -7   28   28   -0.011963   -0.000000
    0    0   -7   29   28   -0.023058    0.004442
    0    0   -7   30   28   -0.008126   -0.000258
    0    0   -7    1   29    0.006458   -0.009097
    0    0   -7    2   29    0.015904   -0.003040
    0    0   -7    3   29    0.009032   -0.007279
    0    0   -7    4   29    0.010528   -0.009570
    0    0   -7    5   29    0.021427   -0.002724
    0    0   -7    6   29    0.007482   -0.007311
    0    0   -7    7   29    0.006597   -0.001127
    0    0   -7    8   29    0.019044   -0.002026
    0    0   -7    9   29    0.017252   -0.002534
    0    0   -7   10   29    0.001776   -0.001071
    0    0   -7   11   29    0.010395   -0.002385
    0    0   -7   12   29    0.006874   -0.002728
    0    0   -7   13   29   -0.018785   -0.004163
    0    0   -7   14   29   -0.036649   -0.001995
    0    0   -7   15   29   -0.021519   -0.003098
    0    0   -7   16   29   -0.029811   -0.002926
    0    0   -7   17   29   -0.037252    0.005569
    0    0   -7   18   29   -0.003263   -0.001765
    0    0   -7   19   29    0.020734    0.000485
    0    0   -7   20   29   -0.019663   -0.001585
    0    0   -7   21   29    0.027142    0.000045
    0    0   -7   22   29   -0.073305   -0.001394
    0    0   -7   23   29   -0.010163    0.001968
    0    0   -7   24   29   -0.012704    0.002777
    0    0   -7   25   29    0.049135    0.002798
    0    0   -7   26   29    0.026004   -0.005918
    0    0   -7   27   29    0.011284   -0.004447
    0    0   -7   28   29   -0.023058   -0.004442
    0    0   -7   29   29   -0.004655    0.000000
    0    0   -7   30   29    0.019118   -0.005291
    0    0   -7    1   30   -0.009926   -0.003652
    0    0   -7    2   30    0.008636   -0.002252
    0    0   -7    3   30    0.000268   -0.005355
    0    0   -7    4   30   -0.004245   -0.004264
    0    0   -7    5   30    0.000815   -0.002335
    0    0   -7    6   30   -0.004962   -0.002901
    0    0   -7    7   30   -0.007932    0.007170
    0    0   -7    8   30   -0.008131    0.005341
    0    0   -7    9   30   -0.010657    0.006174
    0    0   -7   10   30    0.000841    0.006370
    0    0   -7   11   30   -0.000953    0.007198
    0    0   -7   12   30   -0.013034    0.006224
    0    0   -7   13   30    0.101344   -0.006062
    0    0   -7   14   30    0.041991   -0.009254
    0    0   -7   15   30    0.036896   -0.004282
    0    0   -7   16   30   -0.037255    0.009112
    0    0   -7   17   30    0.003270   -0.001541
    0    0   -7   18   30    0.040959    0.004756
    0    0   -7   19   30    0.005608    0.003795
    0    0   -7   20   30   -0.020173    0.008658
    0    0   -7   21   30    0.007386    0.002142
    0    0   -7   22   30    0.037775    0.001136
    0    0   -7   23   30    0.010248   -0.000113
    0    0   -7   24   30    0.011657   -0.002367
    0    0   -7   25   30   -0.001705    0.003793
    0    0   -7   26   30    0.014476    0.003655
    0    0   -7   27   30   -0.012319    0.009000
    0    0   -7   28   30   -0.008126    0.000258
    0    0   -7   29   30    0.019118    0.005291
    0    0   -7   30   30    0.059890   -0.000000
    0    0   -6    1    1   -0.005595    0.002503
    0    0   -6    2    1    0.000439   -0.003548
    0    0   -6    3    1    0.000634   -0.000197
    0    0   -6    4    1   -0.004812   -0.002019
    0    0   -6    5    1   -0.000629    0.000311
    0    0   -6    6    1   -0.002570   -0.001038
    0    0   -6    7    1   -0.000577    0.004242
    0    0   -6    8    1   -0.002883    0.005156
    0    0   -6    9    1   -0.001398    0.000967
    0    0   -6   10    1   -0.000340    0.006381
    0    0   -6   11    1   -0.003501    0.000812
    0    0   -6   12    1    0.000514    0.003381
    0    0   -6   13    1    0.012528    0.015393
    0    0   -6   14    1    0.009653    0.027070
    0    0   -6   15    1    0.002658    0.012139
    0    0   -6   16    1   -0.009547   -0.014937
    0    0   -6   17    1    0.004481    0.015872
    0    0   -6   18    1   -0.003720   -0.009014
    0    0   -6   19    1    0.010201    0.018993
    0    0   -6   20    1   -0.005521   -0.015807
    0    0   -6   21    1    0.001405    0.013396
    0    0   -6   22    1   -0.014811   -0.025247
    0    0   -6   23    1   -0.013256   -0.019750
    0    0   -6   24    1   -0.011990   -0.016369
    0    0   -6   25    1   -0.005330   -0.013099
    0    0   -6   26    1   -0.003011   -0.011370
    0    0   -6   27    1   -0.002273   -0.026217
    0    0   -6   28    1    0.003922   -0.010348
    0    0   -6   29    1   -0.013073   -0.014572
    0    0   -6   30    1    0.008787   -0.002172
    0    0   -6    1    2    0.006282    0.002863
    0    0   -6    2    2   -0.010015   -0.001481
    0    0   -6    3    2   -0.005361    0.001209
    0    0   -6    4    2   -0.002272   -0.001320
    0    0   -6    5    2   -0.000256    0.001853
    0    0   -6    6    2   -0.003152   -0.000059
    0    0   -6    7    2    0.003681   -0.001485
    0    0   -6    8    2    0.004763    0.000750
    0    0   -6    9    2    0.002382   -0.001905
    0    0   -6   10    2    0.003989    0.000190
    0    0   -6   11    2    0.003520   -0.002461
    0    0   -6   12    2    0.003619   -0.000018
    0    0   -6   13    2    0.025753    0.012484
    0    0   -6   14    2    0.027063    0.022135
    0    0   -6   15    2    0.019697    0.010595
    0    0   -6   16    2   -0.009539   -0.011051
    0    0   -6   17    2    0.024437    0.017232
    0    0   -6   18    2    0.012378   -0.006323
    0    0   -6   19    2    0.025778    0.018069
    0    0   -6   20    2   -0.007609   -0.009917
    0    0   -6   21    2    0.011002    0.012570
    0    0   -6   22    2   -0.019496   -0.016767
    0    0   -6   23    2   -0.015591   -0.012014
    0    0   -6   24    2   -0.015521   -0.009467
    0    0   -6   25    2   -0.002306   -0.006911
    0    0   -6   26    2   -0.027197   -0.008405
    0    0   -6   27    2   -0.011970   -0.020346
    0    0   -6   28    2   -0.011064   -0.008166
    0    0   -6   29    2   -0.012697   -0.009816
    0    0   -6   30    2   -0.020480    0.000150
    0    0   -6    1    3    0.002639    0.001505
    0    0   -6    2    3   -0.008171   -0.004052
    0    0   -6    3    3    0.001186   -0.000823
    0    0   -6    4    3   -0.001872   -0.002952
    0    0   -6    5    3   -0.000090   -0.000274
    0    0   -6    6    3   -0.005802   -0.001921
    0    0   -6    7    3    0.001175    0.000016
    0    0   -6    8    3    0.002180    0.001574
    0    0   -6    9    3   -0.001814   -0.001917
    0    0   -6   10    3    0.002342    0.001837
    0    0   -6   11    3   -0.001023   -0.002338
    0    0   -6   12    3    0.003015    0.000170
    0    0   -6   13    3    0.009461    0.014590
    0    0   -6   14    3    0.015603    0.025998
    0    0   -6   15    3    0.021948    0.012405
    0    0   -6   16    3   -0.004168   -0.014249
    0    0   -6   17    3    0.016794    0.015916
    0    0   -6   18    3    0.015793   -0.007750
    0    0   -6   19    3   -0.000164    0.018706
    0    0   -6   20    3   -0.000359   -0.014343
    0    0   -6   21    3    0.014865    0.013380
    0    0   -6   22    3   -0.012543   -0.021616
    0    0   -6   23    3   -0.013736   -0.016480
    0    0   -6   24    3   -0.012757   -0.013811
    0    0   -6   25    3    0.001683   -0.011838
    0    0   -6   26    3   -0.014757   -0.011506
    0    0   -6   27    3   -0.019525   -0.024730
    0    0   -6   28    3   -0.000705   -0.010272
    0    0   -6   29    3    0.005820   -0.013313
    0    0   -6   30    3   -0.002797   -0.002746
    0    0   -6    1    4   -0.001071    0.003599
    0    0   -6    2    4   -0.003358   -0.001363
    0    0   -6    3    4    0.001580    0.001533
    0    0   -6    4    4   -0.005427   -0.000743
    0    0   -6    5    4   -0.005209    0.002235
    0    0   -6    6    4   -0.001218    0.000391
    0    0   -6    7    4    0.001487    0.001173
    0    0   -6    8    4    0.001483    0.002958
    0    0   -6    9    4    0.000245   -0.000841
    0    0   -6   10    4    0.002915    0.003234
    0    0   -6   11    4    0.001503   -0.001406
    0    0   -6   12    4   -0.001416    0.001392
    0    0   -6   13    4    0.010077    0.013410
    0    0   -6   14    4    0.029803    0.025298
    0    0   -6   15    4    0.010034    0.010496
    0    0   -6   16    4   -0.005387   -0.015847
    0    0   -6   17    4    0.011272    0.015110
    0    0   -6   18    4    0.004594   -0.009873
    0    0   -6   19    4    0.003221    0.018070
    0    0   -6   20    4   -0.004492   -0.016339
    0    0   -6   21    4    0.012883    0.013183
    0    0   -6   22    4   -0.018224   -0.023388
    0    0   -6   23    4   -0.013568   -0.018140
    0    0   -6   24    4   -0.007793   -0.013982
    0    0   -6   25    4    0.000230   -0.014371
    0    0   -6   26    4   -0.007668   -0.011921
    0    0   -6   27    4   -0.023685   -0.026685
    0    0   -6   28    4   -0.004252   -0.010816
    0    0   -6   29    4    0.000269   -0.015402
    0    0   -6   30    4    0.009208   -0.002877
    0    0   -6    1    5    0.000414    0.001706
    0    0   -6    2    5   -0.003496   -0.003086
    0    0   -6    3    5   -0.000173   -0.000341
    0    0   -6    4    5   -0.006899   -0.002376
    0    0   -6    5    5    0.000666    0.000244
    0    0   -6    6    5    0.000263   -0.001157
    0    0   -6    7    5    0.000558    0.001151
    0    0   -6    8    5   -0.000066    0.002539
    0    0   -6    9    5    0.001908   -0.000426
    0    0   -6   10    5    0.001320    0.002795
    0    0   -6   11    5   -0.000773   -0.000562
    0    0   -6   12    5    0.001584    0.001600
    0    0   -6   13    5    0.022381    0.013545
    0    0   -6   14    5    0.025379    0.022505
    0    0   -6   15    5    0.016907    0.011396
    0    0   -6   16    5   -0.012329   -0.011104
    0    0   -6   17    5    0.029217    0.017587
    0    0   -6   18    5    0.001224   -0.005722
    0    0   -6   19    5    0.025436    0.018219
    0    0   -6   20    5   -0.002992   -0.009414
    0    0   -6   21    5    0.005671    0.012718
    0    0   -6   22    5   -0.013585   -0.018291
    0    0   -6   23    5   -0.015017   -0.013303
    0    0   -6   24    5   -0.021193   -0.011694
    0    0   -6   25    5   -0.004598   -0.006435
    0    0   -6   26    5   -0.015329   -0.008011
    0    0   -6   27    5   -0.009314   -0.019997
    0    0   -6   28    5   -0.014155   -0.007384
    0    0   -6   29    5   -0.009478   -0.009185
    0    0   -6   30    5   -0.011403    0.000675
    0    0   -6    1    6    0.000655    0.003627
    0    0   -6    2    6   -0.004518   -0.001660
    0    0   -6    3    6   -0.003907    0.001447
    0    0   -6    4    6   -0.001291   -0.000720
    0    0   -6    5    6    0.002642    0.001820
    0    0   -6    6    6   -0.004981    0.000349
    0    0   -6    7    6    0.001137    0.002071
    0    0   -6    8    6    0.003182    0.003564
    0    0   -6    9    6   -0.001099   -0.000064
    0    0   -6   10    6    0.003427    0.004024
    0    0   -6   11    6    0.000316   -0.000267
    0    0   -6   12    6    0.001990    0.002207
    0    0   -6   13    6    0.011687    0.013877
    0    0   -6   14    6    0.013410    0.025064
    0    0   -6   15    6    0.017824    0.011153
    0    0   -6   16    6   -0.014604   -0.014941
    0    0   -6   17    6    0.022550    0.017463
    0    0   -6   18    6   -0.001653   -0.008793
    0    0   -6   19    6    0.007234    0.018967
    0    0   -6   20    6   -0.003826   -0.013784
    0    0   -6   21    6    0.002450    0.012865
    0    0   -6   22    6   -0.014097   -0.021599
    0    0   -6   23    6   -0.015494   -0.016248
    0    0   -6   24    6   -0.019868   -0.013894
    0    0   -6   25    6   -0.003062   -0.011139
    0    0   -6   26    6   -0.007749   -0.010153
    0    0   -6   27    6   -0.010493   -0.024519
    0    0   -6   28    6   -0.003662   -0.009962
    0    0   -6   29    6   -0.002703   -0.012961
    0    0   -6   30    6   -0.001684   -0.001374
    0    0   -6    1    7    0.000137   -0.002675
    0    0   -6    2    7    0.001678   -0.000061
    0    0   -6    3    7    0.000592   -0.000536
    0    0   -6    4    7    0.000162   -0.001483
    0    0   -6    5    7    0.005015   -0.001056
    0    0   -6    6    7   -0.002361   -0.001969
    0    0   -6    7    7   -0.001691    0.000008
    0    0   -6    8    7    0.005710    0.001342
    0    0   -6    9    7   -0.001482   -0.002367
    0    0   -6   10    7   -0.000930    0.002329
    0    0   -6   11    7   -0.001191   -0.002943
    0    0   -6   12    7   -0.000730    0.000081
    0    0   -6   13    7    0.002248    0.000654
    0    0   -6   14    7   -0.000341   -0.004570
    0    0   -6   15    7    0.001915    0.000784
    0    0   -6   16    7   -0.021258   -0.009611
    0    0   -6   17    7    0.004807   -0.009102
    0    0   -6   18    7   -0.032684   -0.025454
    0    0   -6   19    7   -0.003427   -0.004937
    0    0   -6   20    7   -0.010663   -0.014174
    0    0   -6   21    7    0.005137    0.004363
    0    0   -6   22    7   -0.035615   -0.017746
    0    0   -6   23    7   -0.018588   -0.015729
    0    0   -6   24    7   -0.031213   -0.014461
    0    0   -6   25    7   -0.018944   -0.021194
    0    0   -6   26    7    0.010814    0.019069
    0    0   -6   27    7   -0.026369   -0.008482
    0    0   -6   28    7    0.008926    0.015765
    0    0   -6   29    7   -0.009122   -0.014594
    0    0   -6   30    7    0.010764    0.011514
    0    0   -6    1    8   -0.001363   -0.004053
    0    0   -6    2    8    0.000001   -0.002919
    0    0   -6    3    8    0.003182   -0.002724
    0    0   -6    4    8   -0.004038   -0.003792
    0    0   -6    5    8    0.000637   -0.003154
    0    0   -6    6    8    0.004106   -0.004066
    0    0   -6    7    8    0.004269   -0.001313
    0    0   -6    8    8   -0.000567   -0.000113
    0    0   -6    9    8   -0.001699   -0.003420
    0    0   -6   10    8    0.001572    0.000734
    0    0   -6   11    8   -0.002579   -0.003958
    0    0   -6   12    8    0.002523   -0.001266
    0    0   -6   13    8    0.009442    0.001579
    0    0   -6   14    8    0.006449   -0.000706
    0    0   -6   15    8    0.004028    0.001599
    0    0   -6   16    8   -0.024082   -0.010346
    0    0   -6   17    8    0.020427   -0.004921
    0    0   -6   18    8   -0.024094   -0.021305
    0    0   -6   19    8   -0.002398   -0.000907
    0    0   -6   20    8   -0.026227   -0.013641
    0    0   -6   21    8    0.014512    0.004551
    0    0   -6   22    8   -0.027182   -0.015635
    0    0   -6   23    8   -0.032773   -0.013533
    0    0   -6   24    8   -0.021829   -0.012558
    0    0   -6   25    8   -0.017087   -0.016260
    0    0   -6   26    8    0.004069    0.013886
    0    0   -6   27    8   -0.032878   -0.009262
    0    0   -6   28    8    0.002411    0.011327
    0    0   -6   29    8   -0.016297   -0.012249
    0    0   -6   30    8    0.014525    0.009994
    0    0   -6    1    9    0.003454    0.000909
    0    0   -6    2    9   -0.003830    0.001031
    0    0   -6    3    9   -0.000914    0.001926
    0    0   -6    4    9   -0.000147    0.000906
    0    0   -6    5    9    0.002614    0.000957
    0    0   -6    6    9   -0.003878    0.000724
    0    0   -6    7    9    0.000303   -0.000343
    0    0   -6    8    9    0.003029    0.001342
    0    0   -6    9    9   -0.001605   -0.001757
    0    0   -6   10    9    0.006963    0.001718
    0    0   -6   11    9   -0.003192   -0.002518
    0    0   -6   12    9   -0.001833    0.000202
    0    0   -6   13    9    0.005621    0.001095
    0    0   -6   14    9    0.006064   -0.000983
    0    0   -6   15    9    0.011741   -0.000133
    0    0   -6   16    9   -0.025192   -0.010396
    0    0   -6   17    9    0.006104   -0.003658
    0    0   -6   18    9   -0.021801   -0.020568
    0    0   -6   19    9    0.002486   -0.000388
    0    0   -6   20    9   -0.033038   -0.013292
    0    0   -6   21    9    0.010416    0.003658
    0    0   -6   22    9   -0.042999   -0.015205
    0    0   -6   23    9   -0.036322   -0.013117
    0    0   -6   24    9   -0.017701   -0.010256
    0    0   -6   25    9   -0.012883   -0.013805
    0    0   -6   26    9   -0.007208    0.011888
    0    0   -6   27    9   -0.030461   -0.008891
    0    0   -6   28    9    0.006272    0.009731
    0    0   -6   29    9   -0.028478   -0.011887
    0    0   -6   30    9    0.005582    0.010979
    0    0   -6    1   10   -0.004284   -0.005703
    0    0   -6    2   10    0.004760   -0.002701
    0    0   -6    3   10    0.002179   -0.003317
    0    0   -6    4   10   -0.003448   -0.004356
    0    0   -6    5   10    0.004975   -0.003759
    0    0   -6    6   10   -0.001171   -0.004889
    0    0   -6    7   10   -0.004081   -0.001368
    0    0   -6    8   10    0.001492   -0.000095
    0    0   -6    9   10    0.004040   -0.003900
    0    0   -6   10   10   -0.002676    0.000937
    0    0   -6   11   10   -0.005002   -0.004577
    0    0   -6   12   10    0.002286   -0.001404
    0    0   -6   13   10   -0.002744    0.000791
    0    0   -6   14   10    0.003358   -0.004950
    0    0   -6   15   10   -0.001732    0.001305
    0    0   -6   16   10   -0.019176   -0.009116
    0    0   -6   17   10    0.001022   -0.009902
    0    0   -6   18   10   -0.018858   -0.025390
    0    0   -6   19   10    0.008669   -0.005267
    0    0   -6   20   10   -0.012824   -0.014263
    0    0   -6   21   10   -0.002847    0.004105
    0    0   -6   22   10   -0.028212   -0.017783
    0    0   -6   23   10   -0.013941   -0.015559
    0    0   -6   24   10   -0.023389   -0.014482
    0    0   -6   25   10   -0.010865   -0.020473
    0    0   -6   26   10    0.008860    0.018697
    0    0   -6   27   10   -0.018356   -0.007860
    0    0   -6   28   10    0.013493    0.015957
    0    0   -6   29   10   -0.015989   -0.014341
    0    0   -6   30   10    0.007661    0.011238
    0    0   -6    1   11   -0.002393    0.001381
    0    0   -6    2   11   -0.001643    0.001997
    0    0   -6    3   11    0.000347    0.002781
    0    0   -6    4   11   -0.001688    0.001843
    0    0   -6    5   11   -0.003189    0.001732
    0    0   -6    6   11   -0.001911    0.001592
    0    0   -6    7   11   -0.000193    0.000439
    0    0   -6    8   11    0.002338    0.002294
    0    0   -6    9   11   -0.001272   -0.000932
    0    0   -6   10   11   -0.000661    0.002702
    0    0   -6   11   11   -0.002577   -0.001685
    0    0   -6   12   11    0.000499    0.001306
    0    0   -6   13   11    0.011659    0.000839
    0    0   -6   14   11    0.004217   -0.003069
    0    0   -6   15   11    0.008143   -0.001173
    0    0   -6   16   11   -0.007005   -0.010472
    0    0   -6   17   11   -0.002787   -0.005975
    0    0   -6   18   11   -0.037993   -0.022775
    0    0   -6   19   11    0.004976   -0.002537
    0    0   -6   20   11   -0.026212   -0.013762
    0    0   -6   21   11    0.019551    0.003266
    0    0   -6   22   11   -0.034764   -0.016380
    0    0   -6   23   11   -0.028910   -0.014743
    0    0   -6   24   11   -0.016266   -0.011347
    0    0   -6   25   11   -0.024248   -0.016521
    0    0   -6   26   11    0.007041    0.014375
    0    0   -6   27   11   -0.021776   -0.008208
    0    0   -6   28   11    0.002531    0.011788
    0    0   -6   29   11   -0.022658   -0.012839
    0    0   -6   30   11    0.005097    0.012531
    0    0   -6    1   12    0.000830   -0.002434
    0    0   -6    2   12   -0.005044   -0.001904
    0    0   -6    3   12    0.000009   -0.001198
    0    0   -6    4   12   -0.000903   -0.002252
    0    0   -6    5   12    0.000284   -0.002021
    0    0   -6    6   12   -0.005866   -0.002337
    0    0   -6    7   12   -0.002921   -0.001989
    0    0   -6    8   12    0.004960   -0.000284
    0    0   -6    9   12   -0.002127   -0.003416
    0    0   -6   10   12    0.003784    0.000080
    0    0   -6   11   12   -0.002300   -0.004218
    0    0   -6   12   12    0.002753   -0.001339
    0    0   -6   13   12    0.015354    0.001047
    0    0   -6   14   12    0.007890   -0.001834
    0    0   -6   15   12    0.014870   -0.000439
    0    0   -6   16   12   -0.012545   -0.010378
    0    0   -6   17   12   -0.007469   -0.004718
    0    0   -6   18   12   -0.029288   -0.021510
    0    0   -6   19   12    0.008910   -0.000640
    0    0   -6   20   12   -0.017688   -0.013481
    0    0   -6   21   12    0.022512    0.003527
    0    0   -6   22   12   -0.038195   -0.014959
    0    0   -6   23   12   -0.030539   -0.012790
    0    0   -6   24   12   -0.017122   -0.010425
    0    0   -6   25   12   -0.023765   -0.014255
    0    0   -6   26   12   -0.010292    0.012643
    0    0   -6   27   12   -0.019058   -0.008232
    0    0   -6   28   12   -0.002127    0.010450
    0    0   -6   29   12   -0.022023   -0.011772
    0    0   -6   30   12    0.003030    0.011857
    0    0   -6    1   13   -0.011118   -0.015015
    0    0   -6    2   13    0.004196   -0.015430
    0    0   -6    3   13   -0.013984   -0.016199
    0    0   -6    4   13   -0.012843   -0.014760
    0    0   -6    5   13   -0.004977   -0.015641
    0    0   -6    6   13   -0.014708   -0.014540
    0    0   -6    7   13   -0.006981   -0.004718
    0    0   -6    8   13   -0.010334   -0.005729
    0    0   -6    9   13   -0.008182   -0.006095
    0    0   -6   10   13   -0.006878   -0.004825
    0    0   -6   11   13   -0.014922   -0.005826
    0    0   -6   12   13   -0.011315   -0.005840
    0    0   -6   13   13    0.004915    0.003107
    0    0   -6   14   13    0.048757   -0.001878
    0    0   -6   15   13    0.074689    0.006347
    0    0   -6   16   13   -0.008812   -0.002379
    0    0   -6   17   13    0.034939   -0.004299
    0    0   -6   18   13    0.019848   -0.003362
    0    0   -6   19   13   -0.044373   -0.001428
    0    0   -6   20   13    0.024402   -0.005687
    0    0   -6   21   13    0.115061    0.002129
    0    0   -6   22   13    0.025692    0.001674
    0    0   -6   23   13    0.012529    0.000542
    0    0   -6   24   13    0.027194   -0.004546
    0    0   -6   25   13   -0.003576   -0.000586
    0    0   -6   26   13   -0.007206   -0.002364
    0    0   -6   27   13   -0.053057    0.002286
    0    0   -6   28   13   -0.021817    0.001143
    0    0   -6   29   13    0.115255    0.000855
    0    0   -6   30   13   -0.046617   -0.004638
    0    0   -6    1   14   -0.017950   -0.015638
    0    0   -6    2   14    0.000719   -0.017312
    0    0   -6    3   14   -0.017582   -0.018097
    0    0   -6    4   14    0.000930   -0.015709
    0    0   -6    5   14    0.003525   -0.017401
    0    0   -6    6   14   -0.008897   -0.015385
    0    0   -6    7   14   -0.015145    0.008232
    0    0   -6    8   14   -0.014328    0.003598
    0    0   -6    9   14   -0.007117    0.002649
    0    0   -6   10   14   -0.015516    0.008184
    0    0   -6   11   14   -0.011156    0.003945
    0    0   -6   12   14   -0.007767    0.003146
    0    0   -6   13   14    0.066010    0.006437
    0    0   -6   14   14    0.009271    0.001792
    0    0   -6   15   14    0.046684    0.009155
    0    0   -6   16   14   -0.015662    0.000792
    0    0   -6   17   14    0.071492   -0.003812
    0    0   -6   18   14   -0.055664    0.002713
    0    0   -6   19   14    0.037237    0.002537
    0    0   -6   20   14   -0.038447   -0.002420
    0    0   -6   21   14   -0.035585    0.001646
    0    0   -6   22   14    0.023843   -0.006768
    0    0   -6   23   14    0.023179   -0.010865
    0    0   -6   24   14   -0.029507   -0.016006
    0    0   -6   25   14   -0.024995   -0.000800
    0    0   -6   26   14    0.023157   -0.001005
    0    0   -6   27   14    0.049419    0.005514
    0    0   -6   28   14   -0.005045    0.002581
    0    0   -6   29   14   -0.003629   -0.001850
    0    0   -6   30   14   -0.090391   -0.004362
    0    0   -6    1   15   -0.017109   -0.013484
    0    0   -6    2   15   -0.002638   -0.013926
    0    0   -6    3   15   -0.004492   -0.015306
    0    0   -6    4   15   -0.016679   -0.013576
    0    0   -6    5   15   -0.010958   -0.013834
    0    0   -6    6   15   -0.004722   -0.012880
    0    0   -6    7   15   -0.008150   -0.006856
    0    0   -6    8   15   -0.010460   -0.006892
    0    0   -6    9   15   -0.021382   -0.006256
    0    0   -6   10   15   -0.005663   -0.006920
    0    0   -6   11   15   -0.002841   -0.006691
    0    0   -6   12   15   -0.015371   -0.006517
    0    0   -6   13   15    0.023362   -0.000779
    0    0   -6   14   15    0.093578   -0.005472
    0    0   -6   15   15    0.018103    0.001783
    0    0   -6   16   15    0.004185    0.006551
    0    0   -6   17   15   -0.055838   -0.008374
    0    0   -6   18   15    0.060003    0.000541
    0    0   -6   19   15    0.039127   -0.002693
    0    0   -6   20   15   -0.006665   -0.004698
    0    0   -6   21   15    0.056353    0.002466
    0    0   -6   22   15    0.014150    0.004809
    0    0   -6   23   15    0.040418    0.002245
    0    0   -6   24   15    0.062835    0.004874
    0    0   -6   25   15    0.069660    0.004095
    0    0   -6   26   15   -0.045805   -0.005236
    0    0   -6   27   15    0.008081    0.006605
    0    0   -6   28   15   -0.045551   -0.000726
    0    0   -6   29   15    0.005694    0.002968
    0    0   -6   30   15   -0.017745   -0.006477
    0    0   -6    1   16    0.005384    0.016716
    0    0   -6    2   16    0.000073    0.016784
    0    0   -6    3   16   -0.008430    0.016631
    0    0   -6    4   16   -0.004239    0.016875
    0    0   -6    5   16   -0.008918    0.015641
    0    0   -6    6   16   -0.008500    0.016921
    0    0   -6    7   16   -0.003876    0.000960
    0    0   -6    8   16   -0.006483    0.004712
    0    0   -6    9   16   -0.001285    0.005219
    0    0   -6   10   16    0.004756    0.000432
    0    0   -6   11   16   -0.000493    0.004582
    0    0   -6   12   16   -0.006208    0.005540
    0    0   -6   13   16   -0.008950   -0.005575
    0    0   -6   14   16   -0.001588   -0.006815
    0    0   -6   15   16    0.034015   -0.002406
    0    0   -6   16   16   -0.024497   -0.008542
    0    0   -6   17   16    0.066823   -0.005060
    0    0   -6   18   16    0.069868   -0.011133
    0    0   -6   19   16   -0.086278   -0.005434
    0    0   -6   20   16   -0.065849    0.002837
    0    0   -6   21   16    0.079719    0.000221
    0    0   -6   22   16    0.084008   -0.000490
    0    0   -6   23   16   -0.017239    0.002159
    0    0   -6   24   16    0.025078    0.006568
    0    0   -6   25   16   -0.040839    0.000160
    0    0   -6   26   16    0.007368    0.001158
    0    0   -6   27   16   -0.031981   -0.001319
    0    0   -6   28   16   -0.005395   -0.002710
    0    0   -6   29   16    0.074933   -0.003230
    0    0   -6   30   16   -0.006846    0.006897
    0    0   -6    1   17   -0.005851    0.001251
    0    0   -6    2   17    0.017352   -0.003062
    0    0   -6    3   17   -0.000219   -0.001189
    0    0   -6    4   17   -0.004980    0.001376
    0    0   -6    5   17   -0.012984   -0.003468
    0    0   -6    6   17   -0.016731    0.000053
    0    0   -6    7   17   -0.006465    0.015298
    0    0   -6    8   17   -0.010558    0.012069
    0    0   -6    9   17   -0.025006    0.012128
    0    0   -6   10   17   -0.010653    0.015997
    0    0   -6   11   17   -0.013178    0.014573
    0    0   -6   12   17   -0.026316    0.013372
    0    0   -6   13   17    0.010474    0.005267
    0    0   -6   14   17   -0.027139    0.001008
    0    0   -6   15   17    0.112303    0.003246
    0    0   -6   16   17   -0.033465    0.003298
    0    0   -6   17   17   -0.008059    0.004920
    0    0   -6   18   17   -0.075880    0.005657
    0    0   -6   19   17   -0.047775    0.001700
    0    0   -6   20   17    0.022470   -0.000138
    0    0   -6   21   17    0.062821    0.003727
    0    0   -6   22   17   -0.031942   -0.001560
    0    0   -6   23   17    0.052636   -0.006765
    0    0   -6   24   17    0.007829   -0.007597
    0    0   -6   25   17    0.017237    0.003740
    0    0   -6   26   17   -0.030832    0.001569
    0    0   -6   27   17   -0.056102    0.006048
    0    0   -6   28   17    0.065521    0.003719
    0    0   -6   29   17    0.012232    0.007024
    0    0   -6   30   17   -0.064027    0.001477
    0    0   -6    1   18   -0.016416    0.027476
    0    0   -6    2   18   -0.011084    0.023899
    0    0   -6    3   18   -0.012369    0.025074
    0    0   -6    4   18    0.002515    0.027569
    0    0   -6    5   18   -0.008619    0.022450
    0    0   -6    6   18   -0.008337    0.027111
    0    0   -6    7   18   -0.024171    0.018465
    0    0   -6    8   18   -0.028102    0.018233
    0    0   -6    9   18   -0.029398    0.018063
    0    0   -6   10   18   -0.015423    0.018213
    0    0   -6   11   18   -0.019848    0.018353
    0    0   -6   12   18   -0.015658    0.018322
    0    0   -6   13   18    0.024085   -0.000101
    0    0   -6   14   18    0.005891   -0.008457
    0    0   -6   15   18   -0.052266   -0.002368
    0    0   -6   16   18   -0.091023   -0.002653
    0    0   -6   17   18    0.007418   -0.003422
    0    0   -6   18   18    0.009134   -0.007266
    0    0   -6   19   18    0.097529   -0.005070
    0    0   -6   20   18    0.005939    0.002021
    0    0   -6   21   18   -0.079638    0.001216
    0    0   -6   22   18    0.035169   -0.007077
    0    0   -6   23   18    0.070222   -0.009780
    0    0   -6   24   18    0.004146   -0.002584
    0    0   -6   25   18   -0.003909   -0.001962
    0    0   -6   26   18   -0.101789    0.002198
    0    0   -6   27   18    0.113293    0.006066
    0    0   -6   28   18    0.005230    0.001527
    0    0   -6   29   18    0.011622   -0.003954
    0    0   -6   30   18    0.019804    0.003345
    0    0   -6    1   19   -0.013397   -0.003029
    0    0   -6    2   19    0.000407   -0.006402
    0    0   -6    3   19   -0.011122   -0.005138
    0    0   -6    4   19    0.000874   -0.003025
    0    0   -6    5   19    0.009894   -0.006237
    0    0   -6    6   19    0.000023   -0.003746
    0    0   -6    7   19   -0.007262    0.013870
    0    0   -6    8   19   -0.010942    0.010271
    0    0   -6    9   19   -0.001724    0.009749
    0    0   -6   10   19   -0.007178    0.014073
    0    0   -6   11   19   -0.022274    0.011631
    0    0   -6   12   19   -0.017100    0.010304
    0    0   -6   13   19    0.085084    0.003482
    0    0   -6   14   19    0.003717   -0.000545
    0    0   -6   15   19   -0.010743    0.001974
    0    0   -6   16   19    0.085575    0.004816
    0    0   -6   17   19   -0.003088    0.000822
    0    0   -6   18   19   -0.107417    0.003307
    0    0   -6   19   19    0.003115    0.002756
    0    0   -6   20   19   -0.086544    0.002711
    0    0   -6   21   19   -0.002204   -0.001245
    0    0   -6   22   19   -0.027387   -0.003717
    0    0   -6   23   19   -0.046686   -0.005670
    0    0   -6   24   19    0.068128   -0.007707
    0    0   -6   25   19    0.025066    0.004609
    0    0   -6   26   19    0.039861    0.001662
    0    0   -6   27   19    0.021451    0.005986
    0    0   -6   28   19   -0.060062    0.001596
    0    0   -6   29   19   -0.011684    0.001527
    0    0   -6   30   19   -0.009842    0.002084
    0    0   -6    1   20   -0.005383    0.020792
    0    0   -6    2   20   -0.013339    0.017295
    0    0   -6    3   20   -0.006907    0.020214
    0    0   -6    4   20   -0.023637    0.021035
    0    0   -6    5   20   -0.019192    0.017325
    0    0   -6    6   20    0.005371    0.019890
    0    0   -6    7   20    0.004940    0.003886
    0    0   -6    8   20   -0.010584    0.007666
    0    0   -6    9   20   -0.019790    0.008568
    0    0   -6   10   20   -0.000709    0.003970
    0    0   -6   11   20   -0.007677    0.007768
    0    0   -6   12   20   -0.006084    0.008785
    0    0   -6   13   20   -0.042594    0.002347
    0    0   -6   14   20    0.056137   -0.000521
    0    0   -6   15   20   -0.032143   -0.001394
    0    0   -6   16   20    0.055517   -0.000624
    0    0   -6   17   20   -0.055641   -0.005107
    0    0   -6   18   20   -0.026988   -0.008651
    0    0   -6   19   20    0.117707   -0.005635
    0    0   -6   20   20    0.003139   -0.003994
    0    0   -6   21   20    0.077618    0.001836
    0    0   -6   22   20    0.029065   -0.002480
    0    0   -6   23   20    0.054848   -0.000519
    0    0   -6   24   20    0.070324    0.007549
    0    0   -6   25   20    0.018095   -0.001871
    0    0   -6   26   20    0.065689    0.000183
    0    0   -6   27   20   -0.010452   -0.002530
    0    0   -6   28   20   -0.026816    0.002215
    0    0   -6   29   20   -0.013975   -0.001881
    0    0   -6   30   20   -0.055799    0.005823
    0    0   -6    1   21    0.000039   -0.009104
    0    0   -6    2   21    0.007255   -0.009401
    0    0   -6    3   21   -0.000466   -0.010442
    0    0   -6    4   21   -0.006372   -0.009844
    0    0   -6    5   21    0.007548   -0.008843
    0    0   -6    6   21    0.006161   -0.008647
    0    0   -6    7   21   -0.000186    0.001204
    0    0   -6    8   21    0.000057    0.000461
    0    0   -6    9   21   -0.008567    0.001219
    0    0   -6   10   21   -0.002726    0.001585
    0    0   -6   11   21    0.004118    0.001449
    0    0   -6   12   21   -0.002142    0.001180
    0    0   -6   13   21   -0.044307   -0.002633
    0    0   -6   14   21    0.103806   -0.005098
    0    0   -6   15   21   -0.026403   -0.004004
    0    0   -6   16   21   -0.040482    0.004597
    0    0   -6   17   21   -0.083850    0.000120
    0    0   -6   18   21    0.044001    0.000802
    0    0   -6   19   21   -0.030037    0.000535
    0    0   -6   20   21   -0.014565    0.002050
    0    0   -6   21   21   -0.034893   -0.000213
    0    0   -6   22   21   -0.017602    0.003018
    0    0   -6   23   21   -0.017728    0.000325
    0    0   -6   24   21   -0.019993    0.001839
    0    0   -6   25   21   -0.019056    0.002754
    0    0   -6   26   21   -0.003596    0.002024
    0    0   -6   27   21   -0.021174    0.003764
    0    0   -6   28   21   -0.051488   -0.001569
    0    0   -6   29   21    0.021435    0.002428
    0    0   -6   30   21    0.008671    0.004298
    0    0   -6    1   22    0.006187    0.031282
    0    0   -6    2   22   -0.012408    0.027389
    0    0   -6    3   22   -0.010187    0.029739
    0    0   -6    4   22    0.001155    0.030200
    0    0   -6    5   22   -0.017454    0.027677
    0    0   -6    6   22   -0.010156    0.030266
    0    0   -6    7   22   -0.007084    0.013293
    0    0   -6    8   22    0.002489    0.014992
    0    0   -6    9   22   -0.010598    0.017444
    0    0   -6   10   22    0.001455    0.012656
    0    0   -6   11   22   -0.005318    0.017486
    0    0   -6   12   22   -0.009580    0.016589
    0    0   -6   13   22   -0.026776   -0.005068
    0    0   -6   14   22   -0.026951   -0.003154
    0    0   -6   15   22   -0.010465   -0.011365
    0    0   -6   16   22    0.024145    0.003939
    0    0   -6   17   22   -0.011665    0.004926
    0    0   -6   18   22    0.047576    0.010350
    0    0   -6   19   22    0.034106   -0.002377
    0    0   -6   20   22    0.071918    0.008142
    0    0   -6   21   22   -0.056193   -0.004469
    0    0   -6   22   22    0.030870    0.005718
    0    0   -6   23   22    0.064686    0.005893
    0    0   -6   24   22    0.079180    0.017287
    0    0   -6   25   22    0.089404    0.012053
    0    0   -6   26   22   -0.044147   -0.016433
    0    0   -6   27   22    0.032087    0.004136
    0    0   -6   28   22   -0.027049   -0.014156
    0    0   -6   29   22   -0.027677    0.006533
    0    0   -6   30   22   -0.009621   -0.003799
    0    0   -6    1   23    0.003570    0.027352
    0    0   -6    2   23   -0.005660    0.023503
    0    0   -6    3   23    0.007407    0.025969
    0    0   -6    4   23   -0.005362    0.026286
    0    0   -6    5   23   -0.017333    0.024062
    0    0   -6    6   23    0.009354    0.026163
    0    0   -6    7   23    0.007753    0.016123
    0    0   -6    8   23   -0.011353    0.016839
    0    0   -6    9   23   -0.012118    0.019575
    0    0   -6   10   23    0.014215    0.015497
    0    0   -6   11   23    0.000972    0.020676
    0    0   -6   12   23   -0.001714    0.018926
    0    0   -6   13   23   -0.002040   -0.002714
    0    0   -6   14   23   -0.020393    0.002938
    0    0   -6   15   23   -0.033746   -0.009667
    0    0   -6   16   23    0.094836    0.004050
    0    0   -6   17   23   -0.038444    0.005556
    0    0   -6   18   23   -0.003551    0.011745
    0    0   -6   19   23    0.004971    0.000763
    0    0   -6   20   23    0.016841    0.009570
    0    0   -6   21   23    0.027380   -0.004481
    0    0   -6   22   23    0.109390    0.003999
    0    0   -6   23   23    0.037004    0.003114
    0    0   -6   24   23    0.044011    0.010760
    0    0   -6   25   23   -0.038544    0.008964
    0    0   -6   26   23    0.045059   -0.011146
    0    0   -6   27   23    0.058003    0.002850
    0    0   -6   28   23   -0.047605   -0.013973
    0    0   -6   29   23    0.051221    0.007391
    0    0   -6   30   23   -0.046499   -0.003532
    0    0   -6    1   24    0.002596    0.025214
    0    0   -6    2   24    0.011766    0.020450
    0    0   -6    3   24   -0.003053    0.023292
    0    0   -6    4   24   -0.002528    0.022999
    0    0   -6    5   24    0.017227    0.020921
    0    0   -6    6   24    0.004428    0.022658
    0    0   -6    7   24   -0.004604    0.016773
[...]
    0    0    7   22   17    0.040727    0.009561
    0    0    7   23   17   -0.066590    0.009209
    0    0    7   24   17   -0.014366    0.010534
    0    0    7   25   17   -0.059701   -0.001526
    0    0    7   26   17    0.040749   -0.002721
    0    0    7   27   17    0.045086   -0.005647
    0    0    7   28   17   -0.032889    0.000511
    0    0    7   29   17   -0.037252   -0.005569
    0    0    7   30   17    0.003270    0.001541
    0    0    7    1   18    0.014699   -0.013096
    0    0    7    2   18    0.004936   -0.008112
    0    0    7    3   18    0.003471   -0.010662
    0    0    7    4   18   -0.001955   -0.012918
    0    0    7    5   18    0.003409   -0.007417
    0    0    7    6   18    0.007334   -0.011962
    0    0    7    7   18    0.025276   -0.018015
    0    0    7    8   18    0.026489   -0.016515
    0    0    7    9   18    0.027128   -0.015902
    0    0    7   10   18    0.012003   -0.018115
    0    0    7   11   18    0.029266   -0.016813
    0    0    7   12   18    0.027482   -0.016990
    0    0    7   13   18   -0.048576   -0.008921
    0    0    7   14   18    0.032773    0.001197
    0    0    7   15   18    0.025681   -0.008307
    0    0    7   16   18    0.036837   -0.006780
    0    0    7   17   18    0.022031    0.003885
    0    0    7   18   18   -0.009805    0.000000
    0    0    7   19   18    0.015007   -0.000078
    0    0    7   20   18    0.018957   -0.003770
    0    0    7   21   18    0.036059   -0.001711
    0    0    7   22   18   -0.035117    0.010744
    0    0    7   23   18   -0.002656    0.013351
    0    0    7   24   18   -0.045606    0.009990
    0    0    7   25   18    0.026982   -0.000908
    0    0    7   26   18    0.021957   -0.003522
    0    0    7   27   18   -0.099110   -0.007328
    0    0    7   28   18   -0.027795   -0.005699
    0    0    7   29   18   -0.003263    0.001765
    0    0    7   30   18    0.040959   -0.004756
    0    0    7    1   19    0.004050    0.003425
    0    0    7    2   19   -0.012000    0.003533
    0    0    7    3   19   -0.001585    0.003467
    0    0    7    4   19   -0.003943    0.003022
    0    0    7    5   19   -0.017808    0.003529
    0    0    7    6   19   -0.009703    0.003698
    0    0    7    7   19    0.013580   -0.020862
    0    0    7    8   19    0.016725   -0.016053
    0    0    7    9   19   -0.000764   -0.014908
    0    0    7   10   19    0.006734   -0.021429
    0    0    7   11   19    0.010014   -0.017457
    0    0    7   12   19    0.001739   -0.015900
    0    0    7   13   19   -0.040605   -0.003433
    0    0    7   14   19   -0.005678   -0.001981
    0    0    7   15   19   -0.008509   -0.001504
    0    0    7   16   19    0.020804   -0.000817
    0    0    7   17   19    0.012130   -0.002275
    0    0    7   18   19    0.015007    0.000078
    0    0    7   19   19   -0.003086   -0.000000
    0    0    7   20   19    0.026426   -0.003060
    0    0    7   21   19    0.025891   -0.001336
    0    0    7   22   19   -0.030688    0.012283
    0    0    7   23   19    0.031046    0.013104
    0    0    7   24   19    0.069808    0.010802
    0    0    7   25   19    0.004303    0.000432
    0    0    7   26   19   -0.040728   -0.003932
    0    0    7   27   19   -0.018452   -0.001438
    0    0    7   28   19    0.044194   -0.001418
    0    0    7   29   19    0.020734   -0.000485
    0    0    7   30   19    0.005608   -0.003795
    0    0    7    1   20    0.001250   -0.014517
    0    0    7    2   20    0.012045   -0.008212
    0    0    7    3   20    0.012509   -0.012816
    0    0    7    4   20    0.015224   -0.014659
    0    0    7    5   20    0.019745   -0.008258
    0    0    7    6   20    0.011417   -0.012512
    0    0    7    7   20    0.005029   -0.004600
    0    0    7    8   20    0.023112   -0.007134
    0    0    7    9   20    0.021071   -0.007329
    0    0    7   10   20    0.000773   -0.004840
    0    0    7   11   20    0.019860   -0.007009
    0    0    7   12   20    0.012832   -0.007722
    0    0    7   13   20    0.079166   -0.008074
    0    0    7   14   20   -0.020436   -0.002091
    0    0    7   15   20   -0.035893   -0.006817
    0    0    7   16   20   -0.025368    0.001099
    0    0    7   17   20    0.022827    0.002258
    0    0    7   18   20    0.018957    0.003770
    0    0    7   19   20    0.026426    0.003060
    0    0    7   20   20   -0.002860    0.000000
    0    0    7   21   20   -0.034255   -0.000207
    0    0    7   22   20   -0.075104    0.003464
    0    0    7   23   20    0.006052    0.003754
    0    0    7   24   20   -0.092355    0.000678
    0    0    7   25   20   -0.055096   -0.002428
    0    0    7   26   20    0.009310   -0.001788
    0    0    7   27   20    0.010916   -0.000625
    0    0    7   28   20    0.001112   -0.003163
    0    0    7   29   20   -0.019663    0.001585
    0    0    7   30   20   -0.020173   -0.008658
    0    0    7    1   21    0.001580    0.003121
    0    0    7    2   21   -0.010982    0.001503
    0    0    7    3   21   -0.007449    0.002595
    0    0    7    4   21    0.001986    0.003223
    0    0    7    5   21   -0.006101    0.001116
    0    0    7    6   21   -0.004290    0.002183
    0    0    7    7   21   -0.000401   -0.008465
    0    0    7    8   21    0.001499   -0.007433
    0    0    7    9   21   -0.000562   -0.007920
    0    0    7   10   21    0.003031   -0.009312
    0    0    7   11   21    0.002003   -0.008787
    0    0    7   12   21   -0.005848   -0.008630
    0    0    7   13   21   -0.039017    0.003606
    0    0    7   14   21   -0.064076    0.002525
    0    0    7   15   21   -0.010539    0.008529
    0    0    7   16   21   -0.063039   -0.000804
    0    0    7   17   21    0.019579    0.001813
    0    0    7   18   21    0.036059    0.001711
    0    0    7   19   21    0.025891    0.001336
    0    0    7   20   21   -0.034255    0.000207
    0    0    7   21   21    0.017866   -0.000000
    0    0    7   22   21    0.052031    0.003282
    0    0    7   23   21    0.034263    0.004552
    0    0    7   24   21   -0.030752   -0.001497
    0    0    7   25   21   -0.024533    0.000030
    0    0    7   26   21    0.025791    0.000979
    0    0    7   27   21   -0.009385   -0.001344
    0    0    7   28   21    0.039049    0.005089
    0    0    7   29   21    0.027142   -0.000045
    0    0    7   30   21    0.007386   -0.002142
    0    0    7    1   22    0.005966   -0.004366
    0    0    7    2   22    0.017582    0.006780
    0    0    7    3   22    0.020747    0.000052
    0    0    7    4   22    0.015042   -0.000761
    0    0    7    5   22    0.019787    0.004101
    0    0    7    6   22    0.016023   -0.000629
    0    0    7    7   22    0.007531    0.007174
    0    0    7    8   22    0.003363    0.004308
    0    0    7    9   22    0.027941    0.003626
    0    0    7   10   22    0.007103    0.007055
    0    0    7   11   22    0.012973    0.005031
    0    0    7   12   22    0.023593    0.003569
    0    0    7   13   22    0.015095   -0.020926
    0    0    7   14   22   -0.021325   -0.017627
    0    0    7   15   22   -0.002431   -0.016806
    0    0    7   16   22   -0.015539   -0.003338
    0    0    7   17   22    0.040727   -0.009561
    0    0    7   18   22   -0.035117   -0.010744
    0    0    7   19   22   -0.030688   -0.012283
    0    0    7   20   22   -0.075104   -0.003464
    0    0    7   21   22    0.052031   -0.003282
    0    0    7   22   22    0.004219   -0.000000
    0    0    7   23   22   -0.121227    0.001234
    0    0    7   24   22   -0.058935   -0.000781
    0    0    7   25   22   -0.007933   -0.009006
    0    0    7   26   22    0.023817    0.013326
    0    0    7   27   22    0.011840    0.002189
    0    0    7   28   22   -0.019940    0.008803
    0    0    7   29   22   -0.073305    0.001394
    0    0    7   30   22    0.037775   -0.001136
    0    0    7    1   23    0.008233    0.001208
    0    0    7    2   23    0.015683    0.012055
    0    0    7    3   23    0.003273    0.005390
    0    0    7    4   23    0.012769    0.004474
    0    0    7    5   23    0.018719    0.009537
    0    0    7    6   23    0.001746    0.004993
    0    0    7    7   23    0.003416    0.007581
    0    0    7    8   23    0.022886    0.005285
    0    0    7    9   23    0.009628    0.004242
    0    0    7   10   23   -0.011677    0.007562
    0    0    7   11   23    0.005866    0.005010
    0    0    7   12   23    0.002224    0.004426
    0    0    7   13   23   -0.044621   -0.019485
    0    0    7   14   23   -0.009877   -0.020878
    0    0    7   15   23    0.024928   -0.016327
    0    0    7   16   23   -0.071315   -0.005771
    0    0    7   17   23   -0.066590   -0.009209
    0    0    7   18   23   -0.002656   -0.013351
    0    0    7   19   23    0.031046   -0.013104
    0    0    7   20   23    0.006052   -0.003754
    0    0    7   21   23    0.034263   -0.004552
    0    0    7   22   23   -0.121227   -0.001234
    0    0    7   23   23   -0.026109   -0.000000
    0    0    7   24   23   -0.038123   -0.002594
    0    0    7   25   23   -0.073389   -0.012507
    0    0    7   26   23   -0.030838    0.014039
    0    0    7   27   23    0.018954    0.003298
    0    0    7   28   23    0.003669    0.008177
    0    0    7   29   23   -0.010163   -0.001968
    0    0    7   30   23    0.010248    0.000113
    0    0    7    1   24    0.009264    0.003448
    0    0    7    2   24    0.010654    0.013770
    0    0    7    3   24    0.007637    0.007819
    0    0    7    4   24    0.007451    0.007574
    0    0    7    5   24    0.003237    0.011397
    0    0    7    6   24    0.007421    0.007180
    0    0    7    7   24    0.008100    0.008010
    0    0    7    8   24    0.003479    0.006666
    0    0    7    9   24    0.007111    0.006570
    0    0    7   10   24    0.004183    0.008200
    0    0    7   11   24    0.000208    0.008215
    0    0    7   12   24    0.001445    0.007419
    0    0    7   13   24    0.018217   -0.014486
    0    0    7   14   24    0.019426   -0.019144
    0    0    7   15   24    0.001006   -0.013295
    0    0    7   16   24    0.003804   -0.000257
    0    0    7   17   24   -0.014366   -0.010534
    0    0    7   18   24   -0.045606   -0.009990
    0    0    7   19   24    0.069808   -0.010802
    0    0    7   20   24   -0.092355   -0.000678
    0    0    7   21   24   -0.030752    0.001497
    0    0    7   22   24   -0.058935    0.000781
    0    0    7   23   24   -0.038123    0.002594
    0    0    7   24   24   -0.004482   -0.000000
    0    0    7   25   24    0.021267   -0.012569
    0    0    7   26   24    0.012680    0.018738
    0    0    7   27   24   -0.088054    0.007475
    0    0    7   28   24    0.071055    0.015145
    0    0    7   29   24   -0.012704   -0.002777
    0    0    7   30   24    0.011657    0.002367
    0    0    7    1   25    0.012126   -0.010748
    0    0    7    2   25    0.006108   -0.001787
    0    0    7    3   25    0.009274   -0.008003
    0    0    7    4   25    0.009013   -0.010655
    0    0    7    5   25    0.006786   -0.000919
    0    0    7    6   25    0.008609   -0.006810
    0    0    7    7   25    0.011526   -0.008346
    0    0    7    8   25    0.010115   -0.007356
    0    0    7    9   25    0.025390   -0.006313
    0    0    7   10   25    0.012665   -0.008449
    0    0    7   11   25    0.009110   -0.006470
    0    0    7   12   25    0.020686   -0.006723
    0    0    7   13   25   -0.026906   -0.007351
    0    0    7   14   25    0.024546   -0.007573
    0    0    7   15   25   -0.062560   -0.010930
    0    0    7   16   25    0.050683   -0.000627
    0    0    7   17   25   -0.059701    0.001526
    0    0    7   18   25    0.026982    0.000908
    0    0    7   19   25    0.004303   -0.000432
    0    0    7   20   25   -0.055096    0.002428
    0    0    7   21   25   -0.024533   -0.000030
    0    0    7   22   25   -0.007933    0.009006
    0    0    7   23   25   -0.073389    0.012507
    0    0    7   24   25    0.021267    0.012569
    0    0    7   25   25    0.012868   -0.000000
    0    0    7   26   25    0.024770   -0.005991
    0    0    7   27   25   -0.001057   -0.000312
    0    0    7   28   25   -0.003436   -0.005587
    0    0    7   29   25    0.049135   -0.002798
    0    0    7   30   25   -0.001705   -0.003793
    0    0    7    1   26   -0.011828   -0.005870
    0    0    7    2   26    0.018983   -0.006976
    0    0    7    3   26    0.005418   -0.007867
    0    0    7    4   26    0.000766   -0.006860
    0    0    7    5   26    0.017526   -0.006922
    0    0    7    6   26    0.006083   -0.006461
    0    0    7    7   26   -0.011842    0.019328
    0    0    7    8   26   -0.020578    0.013465
    0    0    7    9   26   -0.005777    0.012087
    0    0    7   10   26   -0.008417    0.018982
    0    0    7   11   26   -0.016262    0.014098
    0    0    7   12   26   -0.006321    0.012165
    0    0    7   13   26    0.028042    0.001089
    0    0    7   14   26    0.018333   -0.000700
    0    0    7   15   26   -0.012624    0.001141
    0    0    7   16   26   -0.053906    0.004050
    0    0    7   17   26    0.040749    0.002721
    0    0    7   18   26    0.021957    0.003522
    0    0    7   19   26   -0.040728    0.003932
    0    0    7   20   26    0.009310    0.001788
    0    0    7   21   26    0.025791   -0.000979
    0    0    7   22   26    0.023817   -0.013326
    0    0    7   23   26   -0.030838   -0.014039
    0    0    7   24   26    0.012680   -0.018738
    0    0    7   25   26    0.024770    0.005991
    0    0    7   26   26   -0.037083    0.000000
    0    0    7   27   26    0.020105    0.004726
    0    0    7   28   26    0.044309    0.000358
    0    0    7   29   26    0.026004    0.005918
    0    0    7   30   26    0.014476   -0.003655
    0    0    7    1   27    0.006502   -0.014350
    0    0    7    2   27    0.027129   -0.008418
    0    0    7    3   27    0.029929   -0.013030
    0    0    7    4   27    0.018953   -0.014224
    0    0    7    5   27    0.012337   -0.008248
    0    0    7    6   27    0.012983   -0.012225
    0    0    7    7   27    0.009558    0.010614
    0    0    7    8   27    0.011820    0.005638
    0    0    7    9   27    0.014537    0.005478
    0    0    7   10   27    0.000061    0.010707
    0    0    7   11   27    0.021502    0.007974
    0    0    7   12   27    0.021652    0.005760
    0    0    7   13   27    0.013689   -0.002958
    0    0    7   14   27   -0.088450    0.002902
    0    0    7   15   27    0.039446   -0.003489
    0    0    7   16   27   -0.009647   -0.003403
    0    0    7   17   27    0.045086    0.005647
    0    0    7   18   27   -0.099110    0.007328
    0    0    7   19   27   -0.018452    0.001438
    0    0    7   20   27    0.010916    0.000625
    0    0    7   21   27   -0.009385    0.001344
    0    0    7   22   27    0.011840   -0.002189
    0    0    7   23   27    0.018954   -0.003298
    0    0    7   24   27   -0.088054   -0.007475
    0    0    7   25   27   -0.001057    0.000312
    0    0    7   26   27    0.020105   -0.004726
    0    0    7   27   27    0.037762   -0.000000
    0    0    7   28   27    0.012746   -0.004778
    0    0    7   29   27    0.011284    0.004447
    0    0    7   30   27   -0.012319   -0.009000
    0    0    7    1   28   -0.005103   -0.007197
    0    0    7    2   28    0.012531   -0.008364
    0    0    7    3   28   -0.013975   -0.008644
    0    0    7    4   28   -0.007248   -0.007512
    0    0    7    5   28    0.011595   -0.007799
    0    0    7    6   28   -0.009163   -0.007822
    0    0    7    7   28   -0.001945    0.015152
    0    0    7    8   28    0.002722    0.010230
    0    0    7    9   28   -0.003737    0.008980
    0    0    7   10   28   -0.010878    0.014722
    0    0    7   11   28   -0.011586    0.010900
    0    0    7   12   28   -0.010539    0.009099
    0    0    7   13   28   -0.034221    0.000476
    0    0    7   14   28    0.026868   -0.000682
    0    0    7   15   28    0.064536    0.000299
    0    0    7   16   28    0.029886    0.002912
    0    0    7   17   28   -0.032889   -0.000511
    0    0    7   18   28   -0.027795    0.005699
    0    0    7   19   28    0.044194    0.001418
    0    0    7   20   28    0.001112    0.003163
    0    0    7   21   28    0.039049   -0.005089
    0    0    7   22   28   -0.019940   -0.008803
    0    0    7   23   28    0.003669   -0.008177
    0    0    7   24   28    0.071055   -0.015145
    0    0    7   25   28   -0.003436    0.005587
    0    0    7   26   28    0.044309   -0.000358
    0    0    7   27   28    0.012746    0.004778
    0    0    7   28   28   -0.011963    0.000000
    0    0    7   29   28   -0.023058    0.004442
    0    0    7   30   28   -0.008126   -0.000258
    0    0    7    1   29    0.006458   -0.009097
    0    0    7    2   29    0.015904   -0.003040
    0    0    7    3   29    0.009032   -0.007279
    0    0    7    4   29    0.010528   -0.009570
    0    0    7    5   29    0.021427   -0.002724
    0    0    7    6   29    0.007482   -0.007311
    0    0    7    7   29    0.006597   -0.001127
    0    0    7    8   29    0.019044   -0.002026
    0    0    7    9   29    0.017252   -0.002534
    0    0    7   10   29    0.001776   -0.001071
    0    0    7   11   29    0.010395   -0.002385
    0    0    7   12   29    0.006874   -0.002728
    0    0    7   13   29   -0.018785   -0.004163
    0    0    7   14   29   -0.036649   -0.001995
    0    0    7   15   29   -0.021519   -0.003098
    0    0    7   16   29   -0.029811   -0.002926
    0    0    7   17   29   -0.037252    0.005569
    0    0    7   18   29   -0.003263   -0.001765
    0    0    7   19   29    0.020734    0.000485
    0    0    7   20   29   -0.019663   -0.001585
    0    0    7   21   29    0.027142    0.000045
    0    0    7   22   29   -0.073305   -0.001394
    0    0    7   23   29   -0.010163    0.001968
    0    0    7   24   29   -0.012704    0.002777
    0    0    7   25   29    0.049135    0.002798
    0    0    7   26   29    0.026004   -0.005918
    0    0    7   27   29    0.011284   -0.004447
    0    0    7   28   29   -0.023058   -0.004442
    0    0    7   29   29   -0.004655   -0.000000
    0    0    7   30   29    0.019118   -0.005291
    0    0    7    1   30   -0.009926   -0.003652
    0    0    7    2   30    0.008636   -0.002252
    0    0    7    3   30    0.000268   -0.005355
    0    0    7    4   30   -0.004245   -0.004264
    0    0    7    5   30    0.000815   -0.002335
    0    0    7    6   30   -0.004962   -0.002901
    0    0    7    7   30   -0.007932    0.007170
    0    0    7    8   30   -0.008131    0.005341
    0    0    7    9   30   -0.010657    0.006174
    0    0    7   10   30    0.000841    0.006370
    0    0    7   11   30   -0.000953    0.007198
    0    0    7   12   30   -0.013034    0.006224
    0    0    7   13   30    0.101344   -0.006062
    0    0    7   14   30    0.041991   -0.009254
    0    0    7   15   30    0.036896   -0.004282
    0    0    7   16   30   -0.037255    0.009112
    0    0    7   17   30    0.003270   -0.001541
    0    0    7   18   30    0.040959    0.004756
    0    0    7   19   30    0.005608    0.003795
    0    0    7   20   30   -0.020173    0.008658
    0    0    7   21   30    0.007386    0.002142
    0    0    7   22   30    0.037775    0.001136
    0    0    7   23   30    0.010248   -0.000113
    0    0    7   24   30    0.011657   -0.002367
    0    0    7   25   30   -0.001705    0.003793
    0    0    7   26   30    0.014476    0.003655
    0    0    7   27   30   -0.012319    0.009000
    0    0    7   28   30   -0.008126    0.000258
    0    0    7   29   30    0.019118    0.005291
    0    0    7   30   30    0.059890    0.000000
